LAMMPS (22 Aug 2018)
OMP_NUM_THREADS environment is not set. Defaulting to 1 thread. (../comm.cpp:87)
  using 1 OpenMP thread(s) per MPI task
# LAMMPS INPUT FILE GENERATED BY SIM SUITE
clear
OMP_NUM_THREADS environment is not set. Defaulting to 1 thread. (../comm.cpp:87)
  using 1 OpenMP thread(s) per MPI task

# Initialize simulation box
package omp     5
set 5 OpenMP thread(s) per MPI task
using multi-threaded neighbor list subroutines
dimension       3
boundary        p p p
units           real
atom_style      full

# Set potential styles
pair_style      hybrid/overlay table2 spline 1000 coul/long  2.25000e+01
kspace_style    pppm 1.e-4
bond_style      harmonic

# Read molecule data and set initial velocities
read_data       /home/mnguyen/bin/PECG/test_PAAf0.5_implicitSol_NVT/tmpcNG83g1.lammps.data
  orthogonal box = (-27 -27 -27) to (27 27 27)
  1 by 1 by 1 MPI processor grid
  reading atoms ...
  180 atoms
  scanning bonds ...
  2 = max bonds/atom
  reading bonds ...
  165 bonds
  2 = max # of 1-2 neighbors
  2 = max # of 1-3 neighbors
  4 = max # of 1-4 neighbors
  6 = max # of special neighbors
velocity        all create  1.5014e+05 18612 rot yes dist gaussian

# Assign potentials
pair_coeff      *     *     coul/long
pair_coeff          1     1 table2 /home/mnguyen/bin/PECG/test_PAAf0.5_implicitSol_NVT/tmpcNG83g1.lammps.pair PairPotential4[0]11[0]
WARNING: 7 of 1000 force values in table are inconsistent with -dE/dr.
  Should only be flagged at inflection points (../pair_table2.cpp:484)
WARNING: 491 of 1000 distance values in table with relative error
  over 1e-06 to re-computed values (../pair_table2.cpp:493)
pair_coeff          1     2 table2 /home/mnguyen/bin/PECG/test_PAAf0.5_implicitSol_NVT/tmpcNG83g1.lammps.pair PairPotential2[0]9[1]
WARNING: 41 of 1000 force values in table are inconsistent with -dE/dr.
  Should only be flagged at inflection points (../pair_table2.cpp:484)
WARNING: 491 of 1000 distance values in table with relative error
  over 1e-06 to re-computed values (../pair_table2.cpp:493)
pair_coeff          2     2 table2 /home/mnguyen/bin/PECG/test_PAAf0.5_implicitSol_NVT/tmpcNG83g1.lammps.pair PairPotential1[0]8[2]
WARNING: 41 of 1000 force values in table are inconsistent with -dE/dr.
  Should only be flagged at inflection points (../pair_table2.cpp:484)
WARNING: 491 of 1000 distance values in table with relative error
  over 1e-06 to re-computed values (../pair_table2.cpp:493)
bond_coeff          1  2.9624e+02  3.5000e+00

special_bonds     lj 1.0 1.0 1.0 coul 0.0 0.0 1.0
  2 = max # of 1-2 neighbors
  2 = max # of 1-3 neighbors
  6 = max # of special neighbors

variable UExtSin equal 0.592474963246
variable offsetExtSin equal 0.0
variable nperiodExtSin equal 1.0
variable factorExtSin equal 2.0*PI*${nperiodExtSin}/lz
variable factorExtSin equal 2.0*PI*1/lz
variable sineExtSin atom ${UExtSin}*sin(${factorExtSin}*(x-${offsetExtSin}))
variable sineExtSin atom 0.592474963246*sin(${factorExtSin}*(x-${offsetExtSin}))
variable sineExtSin atom 0.592474963246*sin(0.116355283466289*(x-${offsetExtSin}))
variable sineExtSin atom 0.592474963246*sin(0.116355283466289*(x-0))
variable cosineExtSin atom ${UExtSin}*${factorExtSin}*cos(${factorExtSin}*(x-${offsetExtSin}))
variable cosineExtSin atom 0.592474963246*${factorExtSin}*cos(${factorExtSin}*(x-${offsetExtSin}))
variable cosineExtSin atom 0.592474963246*0.116355283466289*cos(${factorExtSin}*(x-${offsetExtSin}))
variable cosineExtSin atom 0.592474963246*0.116355283466289*cos(0.116355283466289*(x-${offsetExtSin}))
variable cosineExtSin atom 0.592474963246*0.116355283466289*cos(0.116355283466289*(x-0))

group atomsInFieldExtSin type 2 4 6 8 10 12
90 atoms in group atomsInFieldExtSin
fix UextExtSin atomsInFieldExtSin addforce 0.0 0.0 v_cosineExtSin energy v_sineExtSin
fix_modify UextExtSin energy yes




#Thermostat & time integration
timestep        4.8780e-02
thermo          10
thermo_style    custom pe temp press
thermo_modify   line multi norm no format float %14.7e

#minimization
minimize        1.e-4 0.0 100 100
WARNING: Using 'neigh_modify every 1 delay 0 check yes' setting during minimization (../min.cpp:168)
PPPM initialization ...
WARNING: System is not charge neutral, net charge = -90 (../kspace.cpp:302)
  using 12-bit tables for long-range coulomb (../kspace.cpp:321)
  G vector (1/distance) = 0.0997632
  grid = 8 8 8
  stencil order = 5
  estimated absolute RMS force accuracy = 0.0217008
  estimated relative force accuracy = 6.53515e-05
  using double precision FFTs
  3d grid and FFT values/proc = 2197 512
No /omp style for force computation currently active
Neighbor list info ...
  update every 1 steps, delay 0 steps, check yes
  max neighbors/atom: 2000, page size: 100000
  master list distance cutoff = 24.5
  ghost atom cutoff = 24.5
  binsize = 12.25, bins = 5 5 5
  2 neighbor lists, perpetual/occasional/extra = 2 0 0
  (1) pair table2, perpetual
      attributes: half, newton on, omp
      pair build: half/bin/newton/omp
      stencil: half/bin/3d/newton
      bin: standard
  (2) pair coul/long, perpetual, copy from (1)
      attributes: half, newton on, omp
      pair build: copy
      stencil: none
      bin: none
WARNING: Inconsistent image flags (../domain.cpp:782)
Per MPI rank memory allocation (min/avg/max) = 13.84 | 13.84 | 13.84 Mbytes
---------------- Step        0 ----- CPU =      0.0000 (sec) ----------------
PotEng   =  9.1707709e+03 Temp     =  1.5014000e+05 Press    =  3.1464870e+04 
---------------- Step       10 ----- CPU =      0.0134 (sec) ----------------
PotEng   =  3.4254951e+03 Temp     =  1.5014000e+05 Press    =  2.5109817e+04 
---------------- Step       20 ----- CPU =      0.0225 (sec) ----------------
PotEng   =  2.4407390e+03 Temp     =  1.5014000e+05 Press    =  2.5048082e+04 
---------------- Step       30 ----- CPU =      0.0286 (sec) ----------------
PotEng   =  1.5156422e+03 Temp     =  1.5014000e+05 Press    =  2.4672104e+04 
---------------- Step       39 ----- CPU =      0.0754 (sec) ----------------
PotEng   = -2.7473208e+04 Temp     =  1.5014000e+05 Press    =  2.4567757e+04 
Loop time of 0.0753604 on 5 procs for 39 steps with 180 atoms

494.5% CPU use with 1 MPI tasks x 5 OpenMP threads

Minimization stats:
  Stopping criterion = max force evaluations
  Energy initial, next-to-last, final = 
         9170.77085287     -27471.8335562      -27473.208199
  Force two-norm initial, final = 3218.06 2.17234e+06
  Force max component initial, final = 475.934 1.441e+06
  Final line search alpha, max atom move = 1.11686e-12 1.60939e-06
  Iterations, force evaluations = 39 113

MPI task timing breakdown:
Section |  min time  |  avg time  |  max time  |%varavg| %total
---------------------------------------------------------------
Pair    | 0.046988   | 0.046988   | 0.046988   |   0.0 | 62.35
Bond    | 0.00034941 | 0.00034941 | 0.00034941 |   0.0 |  0.46
Kspace  | 0.023933   | 0.023933   | 0.023933   |   0.0 | 31.76
Neigh   | 0.00030606 | 0.00030606 | 0.00030606 |   0.0 |  0.41
Comm    | 0.00054908 | 0.00054908 | 0.00054908 |   0.0 |  0.73
Output  | 2.2117e-05 | 2.2117e-05 | 2.2117e-05 |   0.0 |  0.03
Modify  | 0.0027626  | 0.0027626  | 0.0027626  |   0.0 |  3.67
Other   |            | 0.0004507  |            |       |  0.60

Nlocal:    180 ave 180 max 180 min
Histogram: 1 0 0 0 0 0 0 0 0 0
Nghost:    1051 ave 1051 max 1051 min
Histogram: 1 0 0 0 0 0 0 0 0 0
Neighs:    6771 ave 6771 max 6771 min
Histogram: 1 0 0 0 0 0 0 0 0 0

Total # of neighbors = 6771
Ave neighs/atom = 37.6167
Ave special neighs/atom = 3.5
Neighbor list builds = 3
Dangerous builds = 0

#set up integration parameters
fix             timeintegration all nve
fix             thermostat all langevin  1.5014e+05  1.5014e+05  1.0000e-01 35615


#restart thermo
reset_timestep  0
thermo          10
thermo_style    custom pe temp press
WARNING: New thermo_style command, previous thermo_modify settings will be lost (../output.cpp:705)
thermo_modify   line multi norm no format float %14.7e
variable PRESS equal press
variable STEP equal step

#run equilibration
run             2000
PPPM initialization ...
  using 12-bit tables for long-range coulomb (../kspace.cpp:321)
  G vector (1/distance) = 0.0997632
  grid = 8 8 8
  stencil order = 5
  estimated absolute RMS force accuracy = 0.0217008
  estimated relative force accuracy = 6.53515e-05
  using double precision FFTs
  3d grid and FFT values/proc = 2197 512
No /omp style for force computation currently active
WARNING: Inconsistent image flags (../domain.cpp:782)
Per MPI rank memory allocation (min/avg/max) = 12.71 | 12.71 | 12.71 Mbytes
---------------- Step        0 ----- CPU =      0.0000 (sec) ----------------
PotEng   = -2.7473208e+04 Temp     =  1.5014000e+05 Press    =  2.4567757e+04 
---------------- Step       10 ----- CPU =      0.0139 (sec) ----------------
PotEng   =  4.5463740e+03 Temp     =  1.5813527e+05 Press    =  2.4376875e+04 
---------------- Step       20 ----- CPU =      0.0229 (sec) ----------------
PotEng   =  5.8232438e+03 Temp     =  1.4995558e+05 Press    =  2.3475752e+04 
---------------- Step       30 ----- CPU =      0.0303 (sec) ----------------
PotEng   =  7.1301226e+03 Temp     =  1.5345024e+05 Press    =  2.2993934e+04 
---------------- Step       40 ----- CPU =      0.0352 (sec) ----------------
PotEng   =  8.4881943e+03 Temp     =  1.6170391e+05 Press    =  2.3095131e+04 
---------------- Step       50 ----- CPU =      0.0401 (sec) ----------------
PotEng   =  9.4742240e+03 Temp     =  1.4717006e+05 Press    =  2.0296432e+04 
---------------- Step       60 ----- CPU =      0.0449 (sec) ----------------
PotEng   =  1.0677918e+04 Temp     =  1.4031549e+05 Press    =  1.8575021e+04 
---------------- Step       70 ----- CPU =      0.0497 (sec) ----------------
PotEng   =  1.1580383e+04 Temp     =  1.5035869e+05 Press    =  1.9954765e+04 
---------------- Step       80 ----- CPU =      0.0545 (sec) ----------------
PotEng   =  1.2435698e+04 Temp     =  1.5198977e+05 Press    =  1.9592501e+04 
---------------- Step       90 ----- CPU =      0.0594 (sec) ----------------
PotEng   =  1.3989401e+04 Temp     =  1.4301395e+05 Press    =  1.7791405e+04 
---------------- Step      100 ----- CPU =      0.0642 (sec) ----------------
PotEng   =  1.4490162e+04 Temp     =  1.4892399e+05 Press    =  1.8639507e+04 
---------------- Step      110 ----- CPU =      0.0689 (sec) ----------------
PotEng   =  1.6431045e+04 Temp     =  1.5281695e+05 Press    =  1.8972563e+04 
---------------- Step      120 ----- CPU =      0.0737 (sec) ----------------
PotEng   =  1.5948788e+04 Temp     =  1.5639339e+05 Press    =  1.9549399e+04 
---------------- Step      130 ----- CPU =      0.0785 (sec) ----------------
PotEng   =  1.5750904e+04 Temp     =  1.5816092e+05 Press    =  2.0239643e+04 
---------------- Step      140 ----- CPU =      0.0831 (sec) ----------------
PotEng   =  1.7027556e+04 Temp     =  1.5147212e+05 Press    =  1.8178537e+04 
---------------- Step      150 ----- CPU =      0.0880 (sec) ----------------
PotEng   =  1.7663432e+04 Temp     =  1.5399874e+05 Press    =  1.8288953e+04 
---------------- Step      160 ----- CPU =      0.0928 (sec) ----------------
PotEng   =  1.7082288e+04 Temp     =  1.6055868e+05 Press    =  1.9397732e+04 
---------------- Step      170 ----- CPU =      0.0976 (sec) ----------------
PotEng   =  1.6722407e+04 Temp     =  1.5316584e+05 Press    =  1.7817656e+04 
---------------- Step      180 ----- CPU =      0.1023 (sec) ----------------
PotEng   =  1.6370754e+04 Temp     =  1.5467778e+05 Press    =  1.7327523e+04 
---------------- Step      190 ----- CPU =      0.1071 (sec) ----------------
PotEng   =  1.6220659e+04 Temp     =  1.4748280e+05 Press    =  1.6547611e+04 
---------------- Step      200 ----- CPU =      0.1118 (sec) ----------------
PotEng   =  1.6939552e+04 Temp     =  1.6425099e+05 Press    =  1.8426718e+04 
---------------- Step      210 ----- CPU =      0.1168 (sec) ----------------
PotEng   =  1.7403207e+04 Temp     =  1.5219827e+05 Press    =  1.6096324e+04 
---------------- Step      220 ----- CPU =      0.1216 (sec) ----------------
PotEng   =  1.7952508e+04 Temp     =  1.3239743e+05 Press    =  1.2462756e+04 
---------------- Step      230 ----- CPU =      0.1264 (sec) ----------------
PotEng   =  1.8253535e+04 Temp     =  1.5033405e+05 Press    =  1.4511851e+04 
---------------- Step      240 ----- CPU =      0.1311 (sec) ----------------
PotEng   =  1.8802912e+04 Temp     =  1.6248143e+05 Press    =  1.5652866e+04 
---------------- Step      250 ----- CPU =      0.1359 (sec) ----------------
PotEng   =  1.8890784e+04 Temp     =  1.6612051e+05 Press    =  1.6213893e+04 
---------------- Step      260 ----- CPU =      0.1407 (sec) ----------------
PotEng   =  1.9717099e+04 Temp     =  1.5205037e+05 Press    =  1.3821887e+04 
---------------- Step      270 ----- CPU =      0.1455 (sec) ----------------
PotEng   =  2.1147994e+04 Temp     =  1.4314996e+05 Press    =  1.1191832e+04 
---------------- Step      280 ----- CPU =      0.1502 (sec) ----------------
PotEng   =  2.2157442e+04 Temp     =  1.4844563e+05 Press    =  1.1099501e+04 
---------------- Step      290 ----- CPU =      0.1549 (sec) ----------------
PotEng   =  2.1497560e+04 Temp     =  1.3703801e+05 Press    =  9.1539983e+03 
---------------- Step      300 ----- CPU =      0.1597 (sec) ----------------
PotEng   =  2.2214208e+04 Temp     =  1.3832858e+05 Press    =  9.2383565e+03 
---------------- Step      310 ----- CPU =      0.1646 (sec) ----------------
PotEng   =  2.2743048e+04 Temp     =  1.3740144e+05 Press    =  8.7987097e+03 
---------------- Step      320 ----- CPU =      0.1694 (sec) ----------------
PotEng   =  2.2090629e+04 Temp     =  1.4751769e+05 Press    =  1.0352735e+04 
---------------- Step      330 ----- CPU =      0.1741 (sec) ----------------
PotEng   =  2.1520520e+04 Temp     =  1.5216969e+05 Press    =  1.0558396e+04 
---------------- Step      340 ----- CPU =      0.1789 (sec) ----------------
PotEng   =  2.1864490e+04 Temp     =  1.4412035e+05 Press    =  8.5222107e+03 
---------------- Step      350 ----- CPU =      0.1836 (sec) ----------------
PotEng   =  2.1538565e+04 Temp     =  1.5686404e+05 Press    =  1.0518334e+04 
---------------- Step      360 ----- CPU =      0.1884 (sec) ----------------
PotEng   =  2.1790953e+04 Temp     =  1.4384502e+05 Press    =  8.2783041e+03 
---------------- Step      370 ----- CPU =      0.1933 (sec) ----------------
PotEng   =  2.1474573e+04 Temp     =  1.7012140e+05 Press    =  1.2762643e+04 
---------------- Step      380 ----- CPU =      0.1982 (sec) ----------------
PotEng   =  2.1855419e+04 Temp     =  1.6132292e+05 Press    =  1.1416641e+04 
---------------- Step      390 ----- CPU =      0.2030 (sec) ----------------
PotEng   =  2.2158249e+04 Temp     =  1.5255045e+05 Press    =  1.1012968e+04 
---------------- Step      400 ----- CPU =      0.2077 (sec) ----------------
PotEng   =  2.2522102e+04 Temp     =  1.5913548e+05 Press    =  1.1423001e+04 
---------------- Step      410 ----- CPU =      0.2125 (sec) ----------------
PotEng   =  2.2167475e+04 Temp     =  1.5225716e+05 Press    =  1.0398856e+04 
---------------- Step      420 ----- CPU =      0.2172 (sec) ----------------
PotEng   =  2.1118195e+04 Temp     =  1.5582434e+05 Press    =  1.0864000e+04 
---------------- Step      430 ----- CPU =      0.2221 (sec) ----------------
PotEng   =  2.0354719e+04 Temp     =  1.3653414e+05 Press    =  7.7203317e+03 
---------------- Step      440 ----- CPU =      0.2269 (sec) ----------------
PotEng   =  1.9901502e+04 Temp     =  1.5636694e+05 Press    =  1.1411472e+04 
---------------- Step      450 ----- CPU =      0.2316 (sec) ----------------
PotEng   =  1.9818585e+04 Temp     =  1.5309620e+05 Press    =  1.1075138e+04 
---------------- Step      460 ----- CPU =      0.2365 (sec) ----------------
PotEng   =  2.1030235e+04 Temp     =  1.6331725e+05 Press    =  1.1813672e+04 
---------------- Step      470 ----- CPU =      0.2412 (sec) ----------------
PotEng   =  2.1172178e+04 Temp     =  1.5284992e+05 Press    =  9.2487571e+03 
---------------- Step      480 ----- CPU =      0.2460 (sec) ----------------
PotEng   =  2.1061517e+04 Temp     =  1.4127204e+05 Press    =  7.5849057e+03 
---------------- Step      490 ----- CPU =      0.2508 (sec) ----------------
PotEng   =  2.0874786e+04 Temp     =  1.5896481e+05 Press    =  1.1212214e+04 
---------------- Step      500 ----- CPU =      0.2558 (sec) ----------------
PotEng   =  2.1015963e+04 Temp     =  1.3967878e+05 Press    =  8.4948034e+03 
---------------- Step      510 ----- CPU =      0.2606 (sec) ----------------
PotEng   =  1.9710216e+04 Temp     =  1.3876870e+05 Press    =  9.8553796e+03 
---------------- Step      520 ----- CPU =      0.2653 (sec) ----------------
PotEng   =  1.8979503e+04 Temp     =  1.6063228e+05 Press    =  1.3775670e+04 
---------------- Step      530 ----- CPU =      0.2701 (sec) ----------------
PotEng   =  2.1300587e+04 Temp     =  1.3898594e+05 Press    =  8.5698182e+03 
---------------- Step      540 ----- CPU =      0.2748 (sec) ----------------
PotEng   =  2.1591011e+04 Temp     =  1.4567915e+05 Press    =  9.5492171e+03 
---------------- Step      550 ----- CPU =      0.2794 (sec) ----------------
PotEng   =  2.2650949e+04 Temp     =  1.5344324e+05 Press    =  9.3854797e+03 
---------------- Step      560 ----- CPU =      0.2840 (sec) ----------------
PotEng   =  2.3547856e+04 Temp     =  1.4414058e+05 Press    =  7.7262593e+03 
---------------- Step      570 ----- CPU =      0.2886 (sec) ----------------
PotEng   =  2.3392635e+04 Temp     =  1.5687088e+05 Press    =  1.0980759e+04 
---------------- Step      580 ----- CPU =      0.2932 (sec) ----------------
PotEng   =  2.3850242e+04 Temp     =  1.5530227e+05 Press    =  1.0256765e+04 
---------------- Step      590 ----- CPU =      0.2977 (sec) ----------------
PotEng   =  2.1957384e+04 Temp     =  1.4277642e+05 Press    =  9.2692787e+03 
---------------- Step      600 ----- CPU =      0.3023 (sec) ----------------
PotEng   =  2.2993555e+04 Temp     =  1.5438990e+05 Press    =  1.0243930e+04 
---------------- Step      610 ----- CPU =      0.3068 (sec) ----------------
PotEng   =  2.3805201e+04 Temp     =  1.4724619e+05 Press    =  8.0002028e+03 
---------------- Step      620 ----- CPU =      0.3116 (sec) ----------------
PotEng   =  2.2625198e+04 Temp     =  1.5657603e+05 Press    =  9.6730900e+03 
---------------- Step      630 ----- CPU =      0.3161 (sec) ----------------
PotEng   =  2.2555455e+04 Temp     =  1.5083611e+05 Press    =  8.8266408e+03 
---------------- Step      640 ----- CPU =      0.3207 (sec) ----------------
PotEng   =  2.1096930e+04 Temp     =  1.5816982e+05 Press    =  1.0593447e+04 
---------------- Step      650 ----- CPU =      0.3252 (sec) ----------------
PotEng   =  2.1640464e+04 Temp     =  1.5041702e+05 Press    =  9.1229323e+03 
---------------- Step      660 ----- CPU =      0.3298 (sec) ----------------
PotEng   =  2.2210091e+04 Temp     =  1.5737441e+05 Press    =  9.7479002e+03 
---------------- Step      670 ----- CPU =      0.3344 (sec) ----------------
PotEng   =  2.2817760e+04 Temp     =  1.4758376e+05 Press    =  7.4549801e+03 
---------------- Step      680 ----- CPU =      0.3389 (sec) ----------------
PotEng   =  2.3108360e+04 Temp     =  1.3422742e+05 Press    =  5.1311889e+03 
---------------- Step      690 ----- CPU =      0.3436 (sec) ----------------
PotEng   =  2.4075691e+04 Temp     =  1.4448259e+05 Press    =  6.4351287e+03 
---------------- Step      700 ----- CPU =      0.3482 (sec) ----------------
PotEng   =  2.4954038e+04 Temp     =  1.4239253e+05 Press    =  5.3802951e+03 
---------------- Step      710 ----- CPU =      0.3527 (sec) ----------------
PotEng   =  2.4393980e+04 Temp     =  1.4779613e+05 Press    =  6.6404633e+03 
---------------- Step      720 ----- CPU =      0.3573 (sec) ----------------
PotEng   =  2.5371200e+04 Temp     =  1.5227026e+05 Press    =  7.3942993e+03 
---------------- Step      730 ----- CPU =      0.3619 (sec) ----------------
PotEng   =  2.5423306e+04 Temp     =  1.5702912e+05 Press    =  8.5173211e+03 
---------------- Step      740 ----- CPU =      0.3664 (sec) ----------------
PotEng   =  2.4943893e+04 Temp     =  1.5631821e+05 Press    =  8.5452018e+03 
---------------- Step      750 ----- CPU =      0.3708 (sec) ----------------
PotEng   =  2.5092425e+04 Temp     =  1.6694645e+05 Press    =  1.0876504e+04 
---------------- Step      760 ----- CPU =      0.3755 (sec) ----------------
PotEng   =  2.5157304e+04 Temp     =  1.4291823e+05 Press    =  8.0000785e+03 
---------------- Step      770 ----- CPU =      0.3800 (sec) ----------------
PotEng   =  2.5397651e+04 Temp     =  1.6816247e+05 Press    =  1.1219301e+04 
---------------- Step      780 ----- CPU =      0.3848 (sec) ----------------
PotEng   =  2.2725180e+04 Temp     =  1.4430808e+05 Press    =  7.1387675e+03 
---------------- Step      790 ----- CPU =      0.3896 (sec) ----------------
PotEng   =  2.4533709e+04 Temp     =  1.5280906e+05 Press    =  8.7178048e+03 
---------------- Step      800 ----- CPU =      0.3943 (sec) ----------------
PotEng   =  2.4991793e+04 Temp     =  1.4234727e+05 Press    =  6.9536412e+03 
---------------- Step      810 ----- CPU =      0.3991 (sec) ----------------
PotEng   =  2.5258729e+04 Temp     =  1.4900889e+05 Press    =  7.8913019e+03 
---------------- Step      820 ----- CPU =      0.4041 (sec) ----------------
PotEng   =  2.4728840e+04 Temp     =  1.4162648e+05 Press    =  6.7852684e+03 
---------------- Step      830 ----- CPU =      0.4089 (sec) ----------------
PotEng   =  2.4782574e+04 Temp     =  1.5697539e+05 Press    =  9.0774157e+03 
---------------- Step      840 ----- CPU =      0.4134 (sec) ----------------
PotEng   =  2.4999686e+04 Temp     =  1.4948828e+05 Press    =  7.2479841e+03 
---------------- Step      850 ----- CPU =      0.4183 (sec) ----------------
PotEng   =  2.5300512e+04 Temp     =  1.6154829e+05 Press    =  8.6994845e+03 
---------------- Step      860 ----- CPU =      0.4231 (sec) ----------------
PotEng   =  2.5344788e+04 Temp     =  1.4807523e+05 Press    =  6.5426501e+03 
---------------- Step      870 ----- CPU =      0.4278 (sec) ----------------
PotEng   =  2.4985786e+04 Temp     =  1.5060871e+05 Press    =  5.7106779e+03 
---------------- Step      880 ----- CPU =      0.4325 (sec) ----------------
PotEng   =  2.4299570e+04 Temp     =  1.6638035e+05 Press    =  9.1218215e+03 
---------------- Step      890 ----- CPU =      0.4372 (sec) ----------------
PotEng   =  2.5227035e+04 Temp     =  1.4850086e+05 Press    =  5.9661985e+03 
---------------- Step      900 ----- CPU =      0.4417 (sec) ----------------
PotEng   =  2.6345002e+04 Temp     =  1.3509175e+05 Press    =  3.6210160e+03 
---------------- Step      910 ----- CPU =      0.4463 (sec) ----------------
PotEng   =  2.7574269e+04 Temp     =  1.3799970e+05 Press    =  3.5797574e+03 
---------------- Step      920 ----- CPU =      0.4509 (sec) ----------------
PotEng   =  2.7476539e+04 Temp     =  1.5198325e+05 Press    =  6.0144665e+03 
---------------- Step      930 ----- CPU =      0.4555 (sec) ----------------
PotEng   =  2.6859269e+04 Temp     =  1.6197731e+05 Press    =  8.2774990e+03 
---------------- Step      940 ----- CPU =      0.4603 (sec) ----------------
PotEng   =  2.5809608e+04 Temp     =  1.6771235e+05 Press    =  1.0003737e+04 
---------------- Step      950 ----- CPU =      0.4649 (sec) ----------------
PotEng   =  2.5876490e+04 Temp     =  1.5469577e+05 Press    =  8.1421683e+03 
---------------- Step      960 ----- CPU =      0.4697 (sec) ----------------
PotEng   =  2.7043294e+04 Temp     =  1.5810622e+05 Press    =  7.7977943e+03 
---------------- Step      970 ----- CPU =      0.4744 (sec) ----------------
PotEng   =  2.7669503e+04 Temp     =  1.4292533e+05 Press    =  4.7789521e+03 
---------------- Step      980 ----- CPU =      0.4792 (sec) ----------------
PotEng   =  2.7421409e+04 Temp     =  1.4841872e+05 Press    =  5.7127840e+03 
---------------- Step      990 ----- CPU =      0.4840 (sec) ----------------
PotEng   =  2.7536192e+04 Temp     =  1.4843720e+05 Press    =  5.3314535e+03 
---------------- Step     1000 ----- CPU =      0.4886 (sec) ----------------
PotEng   =  2.7662903e+04 Temp     =  1.4368273e+05 Press    =  4.6348725e+03 
---------------- Step     1010 ----- CPU =      0.4933 (sec) ----------------
PotEng   =  2.7764322e+04 Temp     =  1.2948022e+05 Press    =  2.5663266e+03 
---------------- Step     1020 ----- CPU =      0.4978 (sec) ----------------
PotEng   =  2.7298890e+04 Temp     =  1.4543483e+05 Press    =  5.2230953e+03 
---------------- Step     1030 ----- CPU =      0.5026 (sec) ----------------
PotEng   =  2.7403004e+04 Temp     =  1.5148911e+05 Press    =  6.6205982e+03 
---------------- Step     1040 ----- CPU =      0.5074 (sec) ----------------
PotEng   =  2.7118965e+04 Temp     =  1.5416726e+05 Press    =  6.6417290e+03 
---------------- Step     1050 ----- CPU =      0.5122 (sec) ----------------
PotEng   =  2.7256414e+04 Temp     =  1.6596869e+05 Press    =  7.7890383e+03 
---------------- Step     1060 ----- CPU =      0.5169 (sec) ----------------
PotEng   =  2.2980500e+04 Temp     =  1.5484774e+05 Press    =  6.3886142e+03 
---------------- Step     1070 ----- CPU =      0.5216 (sec) ----------------
PotEng   =  2.4591262e+04 Temp     =  1.5928693e+05 Press    =  6.3417980e+03 
---------------- Step     1080 ----- CPU =      0.5266 (sec) ----------------
PotEng   =  2.8708874e+04 Temp     =  1.5927378e+05 Press    =  6.2459331e+03 
---------------- Step     1090 ----- CPU =      0.5314 (sec) ----------------
PotEng   =  2.8092901e+04 Temp     =  1.5531764e+05 Press    =  5.9470052e+03 
---------------- Step     1100 ----- CPU =      0.5361 (sec) ----------------
PotEng   =  2.9020646e+04 Temp     =  1.4756351e+05 Press    =  3.8518732e+03 
---------------- Step     1110 ----- CPU =      0.5409 (sec) ----------------
PotEng   =  2.9281027e+04 Temp     =  1.5045920e+05 Press    =  3.4189403e+03 
---------------- Step     1120 ----- CPU =      0.5456 (sec) ----------------
PotEng   =  2.9003659e+04 Temp     =  1.4381648e+05 Press    =  2.0469833e+03 
---------------- Step     1130 ----- CPU =      0.5501 (sec) ----------------
PotEng   =  2.9542314e+04 Temp     =  1.4984007e+05 Press    =  2.3575286e+03 
---------------- Step     1140 ----- CPU =      0.5547 (sec) ----------------
PotEng   =  3.0320558e+04 Temp     =  1.3930904e+05 Press    =  1.0024756e+02 
---------------- Step     1150 ----- CPU =      0.5594 (sec) ----------------
PotEng   =  2.8916098e+04 Temp     =  1.6442431e+05 Press    =  4.0658109e+03 
---------------- Step     1160 ----- CPU =      0.5639 (sec) ----------------
PotEng   =  2.8865957e+04 Temp     =  1.4993193e+05 Press    =  1.4952894e+03 
---------------- Step     1170 ----- CPU =      0.5685 (sec) ----------------
PotEng   =  3.2008339e+04 Temp     =  1.6264360e+05 Press    =  3.1848406e+03 
---------------- Step     1180 ----- CPU =      0.5730 (sec) ----------------
PotEng   =  3.1683421e+04 Temp     =  1.5816545e+05 Press    =  2.7244364e+03 
---------------- Step     1190 ----- CPU =      0.5775 (sec) ----------------
PotEng   =  3.2219906e+04 Temp     =  1.5657617e+05 Press    =  1.4890207e+03 
---------------- Step     1200 ----- CPU =      0.5822 (sec) ----------------
PotEng   =  3.2908363e+04 Temp     =  1.3539002e+05 Press    = -1.6259930e+03 
---------------- Step     1210 ----- CPU =      0.5869 (sec) ----------------
PotEng   =  3.3651459e+04 Temp     =  1.4518020e+05 Press    =  3.4673805e+02 
---------------- Step     1220 ----- CPU =      0.5919 (sec) ----------------
PotEng   =  3.4144588e+04 Temp     =  1.5153199e+05 Press    =  1.2350886e+03 
---------------- Step     1230 ----- CPU =      0.5967 (sec) ----------------
PotEng   =  3.4441359e+04 Temp     =  1.5839565e+05 Press    =  3.1433672e+03 
---------------- Step     1240 ----- CPU =      0.6015 (sec) ----------------
PotEng   =  3.3649665e+04 Temp     =  1.4987422e+05 Press    =  2.5031636e+03 
---------------- Step     1250 ----- CPU =      0.6061 (sec) ----------------
PotEng   =  3.2995620e+04 Temp     =  1.5940570e+05 Press    =  4.2002727e+03 
---------------- Step     1260 ----- CPU =      0.6106 (sec) ----------------
PotEng   =  3.1395314e+04 Temp     =  1.5559687e+05 Press    =  4.4577711e+03 
---------------- Step     1270 ----- CPU =      0.6152 (sec) ----------------
PotEng   =  3.1214990e+04 Temp     =  1.5830324e+05 Press    =  4.4558537e+03 
---------------- Step     1280 ----- CPU =      0.6201 (sec) ----------------
PotEng   =  3.1696824e+04 Temp     =  1.4388441e+05 Press    =  1.6292122e+03 
---------------- Step     1290 ----- CPU =      0.6250 (sec) ----------------
PotEng   =  3.0363928e+04 Temp     =  1.4706293e+05 Press    =  2.9603491e+03 
---------------- Step     1300 ----- CPU =      0.6298 (sec) ----------------
PotEng   =  2.9497998e+04 Temp     =  1.5607143e+05 Press    =  4.4363892e+03 
---------------- Step     1310 ----- CPU =      0.6345 (sec) ----------------
PotEng   =  2.9917049e+04 Temp     =  1.6137815e+05 Press    =  5.5416250e+03 
---------------- Step     1320 ----- CPU =      0.6393 (sec) ----------------
PotEng   =  2.9271762e+04 Temp     =  1.3986703e+05 Press    =  2.6494885e+03 
---------------- Step     1330 ----- CPU =      0.6440 (sec) ----------------
PotEng   =  2.8772642e+04 Temp     =  1.5082396e+05 Press    =  5.2533750e+03 
---------------- Step     1340 ----- CPU =      0.6488 (sec) ----------------
PotEng   =  2.9028532e+04 Temp     =  1.4969234e+05 Press    =  4.9399912e+03 
---------------- Step     1350 ----- CPU =      0.6538 (sec) ----------------
PotEng   =  2.9910974e+04 Temp     =  1.4135382e+05 Press    =  2.2879455e+03 
---------------- Step     1360 ----- CPU =      0.6585 (sec) ----------------
PotEng   =  2.9508859e+04 Temp     =  1.2514989e+05 Press    = -5.8666314e+02 
---------------- Step     1370 ----- CPU =      0.6632 (sec) ----------------
PotEng   =  2.8616840e+04 Temp     =  1.5313594e+05 Press    =  4.1150274e+03 
---------------- Step     1380 ----- CPU =      0.6680 (sec) ----------------
PotEng   =  2.8701825e+04 Temp     =  1.4483274e+05 Press    =  1.8101191e+03 
---------------- Step     1390 ----- CPU =      0.6729 (sec) ----------------
PotEng   =  2.7710539e+04 Temp     =  1.6113896e+05 Press    =  4.7696594e+03 
---------------- Step     1400 ----- CPU =      0.6777 (sec) ----------------
PotEng   =  2.6672441e+04 Temp     =  1.4930302e+05 Press    =  3.8237934e+03 
---------------- Step     1410 ----- CPU =      0.6824 (sec) ----------------
PotEng   =  2.7345737e+04 Temp     =  1.4091827e+05 Press    =  2.6316972e+03 
---------------- Step     1420 ----- CPU =      0.6871 (sec) ----------------
PotEng   =  2.7907583e+04 Temp     =  1.4434964e+05 Press    =  2.7061244e+03 
---------------- Step     1430 ----- CPU =      0.6918 (sec) ----------------
PotEng   =  2.8227310e+04 Temp     =  1.4511427e+05 Press    =  2.9730117e+03 
---------------- Step     1440 ----- CPU =      0.6964 (sec) ----------------
PotEng   =  2.9373935e+04 Temp     =  1.4649430e+05 Press    =  3.2749825e+03 
---------------- Step     1450 ----- CPU =      0.7009 (sec) ----------------
PotEng   =  2.8789549e+04 Temp     =  1.4302117e+05 Press    =  2.9308751e+03 
---------------- Step     1460 ----- CPU =      0.7058 (sec) ----------------
PotEng   =  2.8285146e+04 Temp     =  1.4923219e+05 Press    =  4.0281887e+03 
---------------- Step     1470 ----- CPU =      0.7105 (sec) ----------------
PotEng   =  2.7023408e+04 Temp     =  1.4231653e+05 Press    =  3.5401051e+03 
---------------- Step     1480 ----- CPU =      0.7153 (sec) ----------------
PotEng   =  2.7070468e+04 Temp     =  1.5351734e+05 Press    =  5.7103808e+03 
---------------- Step     1490 ----- CPU =      0.7202 (sec) ----------------
PotEng   =  2.7345712e+04 Temp     =  1.3904991e+05 Press    =  3.2718216e+03 
---------------- Step     1500 ----- CPU =      0.7265 (sec) ----------------
PotEng   =  2.7623705e+04 Temp     =  1.4801899e+05 Press    =  4.8968568e+03 
---------------- Step     1510 ----- CPU =      0.7312 (sec) ----------------
PotEng   =  2.8241030e+04 Temp     =  1.4756374e+05 Press    =  4.4461023e+03 
---------------- Step     1520 ----- CPU =      0.7360 (sec) ----------------
PotEng   =  2.8690304e+04 Temp     =  1.4491852e+05 Press    =  4.1687835e+03 
---------------- Step     1530 ----- CPU =      0.7409 (sec) ----------------
PotEng   =  2.9230106e+04 Temp     =  1.5805617e+05 Press    =  6.6070233e+03 
---------------- Step     1540 ----- CPU =      0.7456 (sec) ----------------
PotEng   =  2.8345498e+04 Temp     =  1.5473951e+05 Press    =  6.6057834e+03 
---------------- Step     1550 ----- CPU =      0.7503 (sec) ----------------
PotEng   =  2.7603651e+04 Temp     =  1.5489199e+05 Press    =  6.0397551e+03 
---------------- Step     1560 ----- CPU =      0.7551 (sec) ----------------
PotEng   =  2.6355290e+04 Temp     =  1.4670692e+05 Press    =  6.1370162e+03 
---------------- Step     1570 ----- CPU =      0.7601 (sec) ----------------
PotEng   =  2.8145866e+04 Temp     =  1.5276360e+05 Press    =  6.3012806e+03 
---------------- Step     1580 ----- CPU =      0.7649 (sec) ----------------
PotEng   =  2.8113174e+04 Temp     =  1.3025250e+05 Press    =  2.3305401e+03 
---------------- Step     1590 ----- CPU =      0.7695 (sec) ----------------
PotEng   =  2.6689536e+04 Temp     =  1.4027475e+05 Press    =  4.0892122e+03 
---------------- Step     1600 ----- CPU =      0.7741 (sec) ----------------
PotEng   =  2.6805603e+04 Temp     =  1.6163305e+05 Press    =  8.0687755e+03 
---------------- Step     1610 ----- CPU =      0.7789 (sec) ----------------
PotEng   =  2.7164267e+04 Temp     =  1.4755611e+05 Press    =  5.4958527e+03 
---------------- Step     1620 ----- CPU =      0.7835 (sec) ----------------
PotEng   =  2.6302210e+04 Temp     =  1.4996648e+05 Press    =  6.1261780e+03 
---------------- Step     1630 ----- CPU =      0.7882 (sec) ----------------
PotEng   =  2.5949500e+04 Temp     =  1.5466299e+05 Press    =  6.6422646e+03 
---------------- Step     1640 ----- CPU =      0.7927 (sec) ----------------
PotEng   =  2.5754270e+04 Temp     =  1.5329268e+05 Press    =  5.3402870e+03 
---------------- Step     1650 ----- CPU =      0.7975 (sec) ----------------
PotEng   =  2.5703347e+04 Temp     =  1.4969650e+05 Press    =  4.5511662e+03 
---------------- Step     1660 ----- CPU =      0.8023 (sec) ----------------
PotEng   =  2.5868738e+04 Temp     =  1.3582427e+05 Press    =  2.4782867e+03 
---------------- Step     1670 ----- CPU =      0.8070 (sec) ----------------
PotEng   =  2.5445102e+04 Temp     =  1.4010203e+05 Press    =  3.8996134e+03 
---------------- Step     1680 ----- CPU =      0.8119 (sec) ----------------
PotEng   =  2.4646983e+04 Temp     =  1.6099879e+05 Press    =  7.6047003e+03 
---------------- Step     1690 ----- CPU =      0.8165 (sec) ----------------
PotEng   =  2.6005924e+04 Temp     =  1.6853042e+05 Press    =  7.1107091e+03 
---------------- Step     1700 ----- CPU =      0.8213 (sec) ----------------
PotEng   =  2.6937597e+04 Temp     =  1.5322822e+05 Press    =  3.3275404e+03 
---------------- Step     1710 ----- CPU =      0.8261 (sec) ----------------
PotEng   =  2.7399663e+04 Temp     =  1.6846635e+05 Press    =  6.3059749e+03 
---------------- Step     1720 ----- CPU =      0.8307 (sec) ----------------
PotEng   =  2.8520464e+04 Temp     =  1.5235353e+05 Press    =  3.8906606e+03 
---------------- Step     1730 ----- CPU =      0.8352 (sec) ----------------
PotEng   =  2.6843813e+04 Temp     =  1.5133754e+05 Press    =  4.8251935e+03 
---------------- Step     1740 ----- CPU =      0.8398 (sec) ----------------
PotEng   =  2.6692121e+04 Temp     =  1.6161770e+05 Press    =  6.2445626e+03 
---------------- Step     1750 ----- CPU =      0.8447 (sec) ----------------
PotEng   =  2.7910542e+04 Temp     =  1.4301590e+05 Press    =  2.2351186e+03 
---------------- Step     1760 ----- CPU =      0.8496 (sec) ----------------
PotEng   =  2.8371054e+04 Temp     =  1.4216692e+05 Press    =  1.7411689e+03 
---------------- Step     1770 ----- CPU =      0.8544 (sec) ----------------
PotEng   =  2.7524467e+04 Temp     =  1.4565284e+05 Press    =  2.9639274e+03 
---------------- Step     1780 ----- CPU =      0.8591 (sec) ----------------
PotEng   =  2.7081763e+04 Temp     =  1.6035263e+05 Press    =  4.7920700e+03 
---------------- Step     1790 ----- CPU =      0.8638 (sec) ----------------
PotEng   =  2.7348063e+04 Temp     =  1.6483145e+05 Press    =  5.1927628e+03 
---------------- Step     1800 ----- CPU =      0.8688 (sec) ----------------
PotEng   =  2.8656451e+04 Temp     =  1.5138057e+05 Press    =  2.7738920e+03 
---------------- Step     1810 ----- CPU =      0.8736 (sec) ----------------
PotEng   =  2.9572520e+04 Temp     =  1.3989476e+05 Press    =  4.1997352e+02 
---------------- Step     1820 ----- CPU =      0.8782 (sec) ----------------
PotEng   =  2.9183959e+04 Temp     =  1.5284602e+05 Press    =  1.9260514e+03 
---------------- Step     1830 ----- CPU =      0.8827 (sec) ----------------
PotEng   =  2.9577468e+04 Temp     =  1.5436958e+05 Press    =  2.3781023e+03 
---------------- Step     1840 ----- CPU =      0.8873 (sec) ----------------
PotEng   =  2.8817246e+04 Temp     =  1.4074563e+05 Press    =  4.5742631e+02 
---------------- Step     1850 ----- CPU =      0.8919 (sec) ----------------
PotEng   =  2.9383635e+04 Temp     =  1.5116263e+05 Press    =  1.8191036e+03 
---------------- Step     1860 ----- CPU =      0.8965 (sec) ----------------
PotEng   =  3.0684659e+04 Temp     =  1.3758112e+05 Press    = -8.5929596e+02 
---------------- Step     1870 ----- CPU =      0.9011 (sec) ----------------
PotEng   =  3.0027195e+04 Temp     =  1.5296645e+05 Press    =  8.8643609e+02 
---------------- Step     1880 ----- CPU =      0.9056 (sec) ----------------
PotEng   =  2.9386840e+04 Temp     =  1.5041142e+05 Press    =  9.5639881e+02 
---------------- Step     1890 ----- CPU =      0.9102 (sec) ----------------
PotEng   =  2.9377811e+04 Temp     =  1.4747617e+05 Press    =  1.5951905e+03 
---------------- Step     1900 ----- CPU =      0.9149 (sec) ----------------
PotEng   =  2.7779673e+04 Temp     =  1.4143216e+05 Press    =  1.3377212e+03 
---------------- Step     1910 ----- CPU =      0.9195 (sec) ----------------
PotEng   =  2.7027575e+04 Temp     =  1.5445009e+05 Press    =  3.8766511e+03 
---------------- Step     1920 ----- CPU =      0.9241 (sec) ----------------
PotEng   =  2.5736309e+04 Temp     =  1.6086425e+05 Press    =  5.4627704e+03 
---------------- Step     1930 ----- CPU =      0.9288 (sec) ----------------
PotEng   =  2.6988783e+04 Temp     =  1.5080412e+05 Press    =  4.1265781e+03 
---------------- Step     1940 ----- CPU =      0.9333 (sec) ----------------
PotEng   =  2.6277767e+04 Temp     =  1.5791564e+05 Press    =  5.8016040e+03 
---------------- Step     1950 ----- CPU =      0.9379 (sec) ----------------
PotEng   =  2.5912483e+04 Temp     =  1.5733371e+05 Press    =  5.9126019e+03 
---------------- Step     1960 ----- CPU =      0.9426 (sec) ----------------
PotEng   =  2.5247059e+04 Temp     =  1.4131314e+05 Press    =  3.2670148e+03 
---------------- Step     1970 ----- CPU =      0.9473 (sec) ----------------
PotEng   =  2.6261245e+04 Temp     =  1.5615807e+05 Press    =  4.7442804e+03 
---------------- Step     1980 ----- CPU =      0.9521 (sec) ----------------
PotEng   =  2.5724466e+04 Temp     =  1.5882682e+05 Press    =  5.9084047e+03 
---------------- Step     1990 ----- CPU =      0.9569 (sec) ----------------
PotEng   =  2.5373112e+04 Temp     =  1.5274617e+05 Press    =  5.2012571e+03 
---------------- Step     2000 ----- CPU =      0.9615 (sec) ----------------
PotEng   =  2.4434003e+04 Temp     =  1.4507597e+05 Press    =  4.7841817e+03 
Loop time of 0.961481 on 5 procs for 2000 steps with 180 atoms

Performance: 8.767 ns/day, 2.738 hours/ns, 2080.123 timesteps/s
496.8% CPU use with 1 MPI tasks x 5 OpenMP threads

MPI task timing breakdown:
Section |  min time  |  avg time  |  max time  |%varavg| %total
---------------------------------------------------------------
Pair    | 0.50739    | 0.50739    | 0.50739    |   0.0 | 52.77
Bond    | 0.0045704  | 0.0045704  | 0.0045704  |   0.0 |  0.48
Kspace  | 0.37126    | 0.37126    | 0.37126    |   0.0 | 38.61
Neigh   | 0.0031911  | 0.0031911  | 0.0031911  |   0.0 |  0.33
Comm    | 0.0082543  | 0.0082543  | 0.0082543  |   0.0 |  0.86
Output  | 0.0011485  | 0.0011485  | 0.0011485  |   0.0 |  0.12
Modify  | 0.064357   | 0.064357   | 0.064357   |   0.0 |  6.69
Other   |            | 0.001311   |            |       |  0.14

Nlocal:    180 ave 180 max 180 min
Histogram: 1 0 0 0 0 0 0 0 0 0
Nghost:    1046 ave 1046 max 1046 min
Histogram: 1 0 0 0 0 0 0 0 0 0
Neighs:    6766 ave 6766 max 6766 min
Histogram: 1 0 0 0 0 0 0 0 0 0

Total # of neighbors = 6766
Ave neighs/atom = 37.5889
Ave special neighs/atom = 3.5
Neighbor list builds = 32
Dangerous builds = 1

#restart thermo
reset_timestep  0
thermo          10
thermo_style    custom pe temp press
WARNING: New thermo_style command, previous thermo_modify settings will be lost (../output.cpp:705)
thermo_modify   line multi norm no format float %14.7e

#setup trajectory output
dump            myDump all custom 10 /home/mnguyen/bin/PECG/test_PAAf0.5_implicitSol_NVT/tmpcNG83g1.trj.lammpstrj id type x y z mol
dump_modify     myDump element A- A
dump_modify     myDump sort id
dump_modify     myDump format line  "%d %d %14.7e %14.7e %14.7e %d"

#run production
run             2000
PPPM initialization ...
  using 12-bit tables for long-range coulomb (../kspace.cpp:321)
  G vector (1/distance) = 0.0997632
  grid = 8 8 8
  stencil order = 5
  estimated absolute RMS force accuracy = 0.0217008
  estimated relative force accuracy = 6.53515e-05
  using double precision FFTs
  3d grid and FFT values/proc = 2197 512
No /omp style for force computation currently active
WARNING: Inconsistent image flags (../domain.cpp:782)
Per MPI rank memory allocation (min/avg/max) = 13.98 | 13.98 | 13.98 Mbytes
---------------- Step        0 ----- CPU =      0.0000 (sec) ----------------
PotEng   =  2.4434003e+04 Temp     =  1.4507597e+05 Press    =  4.7841817e+03 
---------------- Step       10 ----- CPU =      0.0141 (sec) ----------------
PotEng   =  2.5055910e+04 Temp     =  1.5151545e+05 Press    =  5.4865482e+03 
---------------- Step       20 ----- CPU =      0.0230 (sec) ----------------
PotEng   =  2.4923545e+04 Temp     =  1.4777042e+05 Press    =  4.6188274e+03 
---------------- Step       30 ----- CPU =      0.0296 (sec) ----------------
PotEng   =  2.4974324e+04 Temp     =  1.5475818e+05 Press    =  6.4092576e+03 
---------------- Step       40 ----- CPU =      0.0351 (sec) ----------------
PotEng   =  2.5258304e+04 Temp     =  1.4800193e+05 Press    =  5.9461159e+03 
---------------- Step       50 ----- CPU =      0.0400 (sec) ----------------
PotEng   =  2.4357975e+04 Temp     =  1.5501227e+05 Press    =  7.7471465e+03 
---------------- Step       60 ----- CPU =      0.0449 (sec) ----------------
PotEng   =  2.4262950e+04 Temp     =  1.5615912e+05 Press    =  8.1169802e+03 
---------------- Step       70 ----- CPU =      0.0497 (sec) ----------------
PotEng   =  2.4599909e+04 Temp     =  1.4714492e+05 Press    =  5.3432883e+03 
---------------- Step       80 ----- CPU =      0.0545 (sec) ----------------
PotEng   =  2.3660781e+04 Temp     =  1.5433095e+05 Press    =  6.9618622e+03 
---------------- Step       90 ----- CPU =      0.0593 (sec) ----------------
PotEng   =  2.3601611e+04 Temp     =  1.5954170e+05 Press    =  8.2313038e+03 
---------------- Step      100 ----- CPU =      0.0641 (sec) ----------------
PotEng   =  2.3297869e+04 Temp     =  1.4202489e+05 Press    =  6.3095816e+03 
---------------- Step      110 ----- CPU =      0.0689 (sec) ----------------
PotEng   =  2.3428905e+04 Temp     =  1.4534813e+05 Press    =  7.0652018e+03 
---------------- Step      120 ----- CPU =      0.0737 (sec) ----------------
PotEng   =  2.2881828e+04 Temp     =  1.6708832e+05 Press    =  1.0841126e+04 
---------------- Step      130 ----- CPU =      0.0786 (sec) ----------------
PotEng   =  2.1803608e+04 Temp     =  1.3984892e+05 Press    =  7.4018725e+03 
---------------- Step      140 ----- CPU =      0.0834 (sec) ----------------
PotEng   =  2.2048735e+04 Temp     =  1.4223021e+05 Press    =  7.0167918e+03 
---------------- Step      150 ----- CPU =      0.0882 (sec) ----------------
PotEng   =  2.2703314e+04 Temp     =  1.3727947e+05 Press    =  5.2455744e+03 
---------------- Step      160 ----- CPU =      0.0930 (sec) ----------------
PotEng   =  2.3838869e+04 Temp     =  1.5121418e+05 Press    =  6.8035431e+03 
---------------- Step      170 ----- CPU =      0.0978 (sec) ----------------
PotEng   =  2.3099443e+04 Temp     =  1.4554925e+05 Press    =  6.5197346e+03 
---------------- Step      180 ----- CPU =      0.1027 (sec) ----------------
PotEng   =  2.3412244e+04 Temp     =  1.5240945e+05 Press    =  7.5572901e+03 
---------------- Step      190 ----- CPU =      0.1076 (sec) ----------------
PotEng   =  2.2235960e+04 Temp     =  1.4989659e+05 Press    =  7.0678748e+03 
---------------- Step      200 ----- CPU =      0.1124 (sec) ----------------
PotEng   =  2.2488443e+04 Temp     =  1.4645655e+05 Press    =  7.1568611e+03 
---------------- Step      210 ----- CPU =      0.1172 (sec) ----------------
PotEng   =  2.2427043e+04 Temp     =  1.6198490e+05 Press    =  9.7777753e+03 
---------------- Step      220 ----- CPU =      0.1220 (sec) ----------------
PotEng   =  2.2279064e+04 Temp     =  1.4484618e+05 Press    =  7.2086877e+03 
---------------- Step      230 ----- CPU =      0.1269 (sec) ----------------
PotEng   =  2.2902974e+04 Temp     =  1.4354786e+05 Press    =  6.8908595e+03 
---------------- Step      240 ----- CPU =      0.1317 (sec) ----------------
PotEng   =  2.2532312e+04 Temp     =  1.5124651e+05 Press    =  7.6951047e+03 
---------------- Step      250 ----- CPU =      0.1366 (sec) ----------------
PotEng   =  2.2919618e+04 Temp     =  1.6352774e+05 Press    =  9.3083873e+03 
---------------- Step      260 ----- CPU =      0.1414 (sec) ----------------
PotEng   =  2.3193694e+04 Temp     =  1.5830598e+05 Press    =  8.2404242e+03 
---------------- Step      270 ----- CPU =      0.1462 (sec) ----------------
PotEng   =  2.2349683e+04 Temp     =  1.6397861e+05 Press    =  8.6486936e+03 
---------------- Step      280 ----- CPU =      0.1511 (sec) ----------------
PotEng   =  2.2763972e+04 Temp     =  1.4966993e+05 Press    =  5.4636377e+03 
---------------- Step      290 ----- CPU =      0.1559 (sec) ----------------
PotEng   =  2.2534929e+04 Temp     =  1.5034146e+05 Press    =  5.3186043e+03 
---------------- Step      300 ----- CPU =      0.1607 (sec) ----------------
PotEng   =  2.3530602e+04 Temp     =  1.6242916e+05 Press    =  7.3911170e+03 
---------------- Step      310 ----- CPU =      0.1655 (sec) ----------------
PotEng   =  2.4487302e+04 Temp     =  1.5650310e+05 Press    =  5.9510310e+03 
---------------- Step      320 ----- CPU =      0.1704 (sec) ----------------
PotEng   =  2.4959070e+04 Temp     =  1.6455526e+05 Press    =  7.5443883e+03 
---------------- Step      330 ----- CPU =      0.1752 (sec) ----------------
PotEng   =  2.5530300e+04 Temp     =  1.6429840e+05 Press    =  7.5197530e+03 
---------------- Step      340 ----- CPU =      0.1801 (sec) ----------------
PotEng   =  2.5736309e+04 Temp     =  1.4033310e+05 Press    =  5.1280834e+03 
---------------- Step      350 ----- CPU =      0.1852 (sec) ----------------
PotEng   =  2.5374202e+04 Temp     =  1.5224948e+05 Press    =  7.0652119e+03 
---------------- Step      360 ----- CPU =      0.1903 (sec) ----------------
PotEng   =  2.4992373e+04 Temp     =  1.4160713e+05 Press    =  5.3640579e+03 
---------------- Step      370 ----- CPU =      0.1953 (sec) ----------------
PotEng   =  2.4799704e+04 Temp     =  1.4638006e+05 Press    =  5.9608111e+03 
---------------- Step      380 ----- CPU =      0.2002 (sec) ----------------
PotEng   =  2.4764017e+04 Temp     =  1.5407357e+05 Press    =  7.8031441e+03 
---------------- Step      390 ----- CPU =      0.2051 (sec) ----------------
PotEng   =  2.4298527e+04 Temp     =  1.5601449e+05 Press    =  8.0714227e+03 
---------------- Step      400 ----- CPU =      0.2100 (sec) ----------------
PotEng   =  2.3400576e+04 Temp     =  1.3843768e+05 Press    =  5.5517746e+03 
---------------- Step      410 ----- CPU =      0.2148 (sec) ----------------
PotEng   =  2.4292155e+04 Temp     =  1.5144194e+05 Press    =  6.9330766e+03 
---------------- Step      420 ----- CPU =      0.2196 (sec) ----------------
PotEng   =  2.4634073e+04 Temp     =  1.5602891e+05 Press    =  7.5528150e+03 
---------------- Step      430 ----- CPU =      0.2246 (sec) ----------------
PotEng   =  2.4855586e+04 Temp     =  1.5287940e+05 Press    =  6.8298374e+03 
---------------- Step      440 ----- CPU =      0.2297 (sec) ----------------
PotEng   =  2.5476302e+04 Temp     =  1.4949574e+05 Press    =  6.0946805e+03 
---------------- Step      450 ----- CPU =      0.2346 (sec) ----------------
PotEng   =  2.6266453e+04 Temp     =  1.4609977e+05 Press    =  5.1273885e+03 
---------------- Step      460 ----- CPU =      0.2399 (sec) ----------------
PotEng   =  2.6823031e+04 Temp     =  1.5706028e+05 Press    =  7.0028693e+03 
---------------- Step      470 ----- CPU =      0.2447 (sec) ----------------
PotEng   =  2.6553088e+04 Temp     =  1.5199899e+05 Press    =  5.7073305e+03 
---------------- Step      480 ----- CPU =      0.2497 (sec) ----------------
PotEng   =  2.6751273e+04 Temp     =  1.5018412e+05 Press    =  4.0821396e+03 
---------------- Step      490 ----- CPU =      0.2547 (sec) ----------------
PotEng   =  2.7350787e+04 Temp     =  1.5761312e+05 Press    =  5.1266674e+03 
---------------- Step      500 ----- CPU =      0.2598 (sec) ----------------
PotEng   =  2.8600301e+04 Temp     =  1.4950897e+05 Press    =  2.7841099e+03 
---------------- Step      510 ----- CPU =      0.2648 (sec) ----------------
PotEng   =  2.8657676e+04 Temp     =  1.4728014e+05 Press    =  1.9122578e+03 
---------------- Step      520 ----- CPU =      0.2737 (sec) ----------------
PotEng   =  2.8555852e+04 Temp     =  1.6040672e+05 Press    =  4.1444329e+03 
---------------- Step      530 ----- CPU =      0.2786 (sec) ----------------
PotEng   =  2.9085233e+04 Temp     =  1.6266630e+05 Press    =  4.1963966e+03 
---------------- Step      540 ----- CPU =      0.2834 (sec) ----------------
PotEng   =  2.8574751e+04 Temp     =  1.4767649e+05 Press    =  2.6934983e+03 
---------------- Step      550 ----- CPU =      0.2883 (sec) ----------------
PotEng   =  2.7928111e+04 Temp     =  1.3340064e+05 Press    =  1.3709002e+03 
---------------- Step      560 ----- CPU =      0.2931 (sec) ----------------
PotEng   =  2.7522815e+04 Temp     =  1.6263126e+05 Press    =  5.2781250e+03 
---------------- Step      570 ----- CPU =      0.2979 (sec) ----------------
PotEng   =  2.7230158e+04 Temp     =  1.5318305e+05 Press    =  4.2951016e+03 
---------------- Step      580 ----- CPU =      0.3027 (sec) ----------------
PotEng   =  2.7440433e+04 Temp     =  1.4542647e+05 Press    =  3.0792738e+03 
---------------- Step      590 ----- CPU =      0.3076 (sec) ----------------
PotEng   =  2.7137821e+04 Temp     =  1.4223002e+05 Press    =  2.4547972e+03 
---------------- Step      600 ----- CPU =      0.3124 (sec) ----------------
PotEng   =  2.6638823e+04 Temp     =  1.4757699e+05 Press    =  3.0042070e+03 
---------------- Step      610 ----- CPU =      0.3173 (sec) ----------------
PotEng   =  2.7442364e+04 Temp     =  1.5529924e+05 Press    =  3.8374810e+03 
---------------- Step      620 ----- CPU =      0.3221 (sec) ----------------
PotEng   =  2.7366039e+04 Temp     =  1.6461629e+05 Press    =  5.0213894e+03 
---------------- Step      630 ----- CPU =      0.3269 (sec) ----------------
PotEng   =  2.7149235e+04 Temp     =  1.5892767e+05 Press    =  4.8311597e+03 
---------------- Step      640 ----- CPU =      0.3318 (sec) ----------------
PotEng   =  2.6936420e+04 Temp     =  1.4532767e+05 Press    =  2.7524173e+03 
---------------- Step      650 ----- CPU =      0.3366 (sec) ----------------
PotEng   =  2.7135833e+04 Temp     =  1.5414588e+05 Press    =  3.6594546e+03 
---------------- Step      660 ----- CPU =      0.3414 (sec) ----------------
PotEng   =  2.6186798e+04 Temp     =  1.4433469e+05 Press    =  2.5546530e+03 
---------------- Step      670 ----- CPU =      0.3462 (sec) ----------------
PotEng   =  2.5494859e+04 Temp     =  1.5234498e+05 Press    =  3.5157825e+03 
---------------- Step      680 ----- CPU =      0.3511 (sec) ----------------
PotEng   =  2.5880451e+04 Temp     =  1.4690039e+05 Press    =  2.4654705e+03 
---------------- Step      690 ----- CPU =      0.3559 (sec) ----------------
PotEng   =  2.5800449e+04 Temp     =  1.4624005e+05 Press    =  2.5700504e+03 
---------------- Step      700 ----- CPU =      0.3608 (sec) ----------------
PotEng   =  2.6270648e+04 Temp     =  1.3701932e+05 Press    =  3.7666332e+02 
---------------- Step      710 ----- CPU =      0.3656 (sec) ----------------
PotEng   =  2.5566252e+04 Temp     =  1.4551814e+05 Press    =  1.8122230e+03 
---------------- Step      720 ----- CPU =      0.3704 (sec) ----------------
PotEng   =  2.5773897e+04 Temp     =  1.3219121e+05 Press    = -6.5492143e+02 
---------------- Step      730 ----- CPU =      0.3752 (sec) ----------------
PotEng   =  2.5724492e+04 Temp     =  1.5473502e+05 Press    =  2.7994047e+03 
---------------- Step      740 ----- CPU =      0.3801 (sec) ----------------
PotEng   =  2.0882382e+04 Temp     =  1.5209796e+05 Press    =  2.3104241e+03 
---------------- Step      750 ----- CPU =      0.3849 (sec) ----------------
PotEng   =  2.1853245e+04 Temp     =  1.4867536e+05 Press    =  1.7872086e+03 
---------------- Step      760 ----- CPU =      0.3897 (sec) ----------------
PotEng   =  2.6683978e+04 Temp     =  1.4965114e+05 Press    =  2.9803550e+03 
---------------- Step      770 ----- CPU =      0.3946 (sec) ----------------
PotEng   =  2.5422983e+04 Temp     =  1.3303927e+05 Press    =  1.4280419e+03 
---------------- Step      780 ----- CPU =      0.3995 (sec) ----------------
PotEng   =  2.5182344e+04 Temp     =  1.4311909e+05 Press    =  3.7848981e+03 
---------------- Step      790 ----- CPU =      0.4043 (sec) ----------------
PotEng   =  2.4740831e+04 Temp     =  1.6702055e+05 Press    =  8.1734075e+03 
---------------- Step      800 ----- CPU =      0.4091 (sec) ----------------
PotEng   =  2.6423113e+04 Temp     =  1.5467243e+05 Press    =  6.0778588e+03 
---------------- Step      810 ----- CPU =      0.4139 (sec) ----------------
PotEng   =  2.6038566e+04 Temp     =  1.3461051e+05 Press    =  2.9290790e+03 
---------------- Step      820 ----- CPU =      0.4187 (sec) ----------------
PotEng   =  2.5428252e+04 Temp     =  1.5817023e+05 Press    =  7.1049681e+03 
---------------- Step      830 ----- CPU =      0.4235 (sec) ----------------
PotEng   =  2.6361182e+04 Temp     =  1.4966363e+05 Press    =  6.5965168e+03 
---------------- Step      840 ----- CPU =      0.4285 (sec) ----------------
PotEng   =  2.6586345e+04 Temp     =  1.4645172e+05 Press    =  6.4998205e+03 
---------------- Step      850 ----- CPU =      0.4333 (sec) ----------------
PotEng   =  2.5599339e+04 Temp     =  1.5852277e+05 Press    =  8.1154318e+03 
---------------- Step      860 ----- CPU =      0.4381 (sec) ----------------
PotEng   =  2.5987903e+04 Temp     =  1.5260478e+05 Press    =  6.7964067e+03 
---------------- Step      870 ----- CPU =      0.4430 (sec) ----------------
PotEng   =  2.5605047e+04 Temp     =  1.4935661e+05 Press    =  6.4778860e+03 
---------------- Step      880 ----- CPU =      0.4478 (sec) ----------------
PotEng   =  2.4134955e+04 Temp     =  1.6236171e+05 Press    =  9.2067834e+03 
---------------- Step      890 ----- CPU =      0.4527 (sec) ----------------
PotEng   =  2.5317525e+04 Temp     =  1.4931750e+05 Press    =  6.7394276e+03 
---------------- Step      900 ----- CPU =      0.4575 (sec) ----------------
PotEng   =  2.5851194e+04 Temp     =  1.5966091e+05 Press    =  7.7575212e+03 
---------------- Step      910 ----- CPU =      0.4623 (sec) ----------------
PotEng   =  2.4921918e+04 Temp     =  1.5203822e+05 Press    =  6.5505845e+03 
---------------- Step      920 ----- CPU =      0.4672 (sec) ----------------
PotEng   =  2.4803412e+04 Temp     =  1.5876497e+05 Press    =  7.1914828e+03 
---------------- Step      930 ----- CPU =      0.4720 (sec) ----------------
PotEng   =  2.4570983e+04 Temp     =  1.5541832e+05 Press    =  6.5329290e+03 
---------------- Step      940 ----- CPU =      0.4770 (sec) ----------------
PotEng   =  2.5262038e+04 Temp     =  1.4125141e+05 Press    =  4.6344355e+03 
---------------- Step      950 ----- CPU =      0.4820 (sec) ----------------
PotEng   =  2.5048487e+04 Temp     =  1.4952187e+05 Press    =  6.2634426e+03 
---------------- Step      960 ----- CPU =      0.4870 (sec) ----------------
PotEng   =  2.4653969e+04 Temp     =  1.5784657e+05 Press    =  8.7740929e+03 
---------------- Step      970 ----- CPU =      0.4923 (sec) ----------------
PotEng   =  2.4847982e+04 Temp     =  1.4454502e+05 Press    =  6.4251018e+03 
---------------- Step      980 ----- CPU =      0.4973 (sec) ----------------
PotEng   =  2.5858554e+04 Temp     =  1.5943911e+05 Press    =  8.3542617e+03 
---------------- Step      990 ----- CPU =      0.5022 (sec) ----------------
PotEng   =  2.6507635e+04 Temp     =  1.3879885e+05 Press    =  4.6391995e+03 
---------------- Step     1000 ----- CPU =      0.5071 (sec) ----------------
PotEng   =  2.6704105e+04 Temp     =  1.4593430e+05 Press    =  4.8505555e+03 
---------------- Step     1010 ----- CPU =      0.5119 (sec) ----------------
PotEng   =  2.5758164e+04 Temp     =  1.3769476e+05 Press    =  3.9432549e+03 
---------------- Step     1020 ----- CPU =      0.5167 (sec) ----------------
PotEng   =  2.7022268e+04 Temp     =  1.5058884e+05 Press    =  5.2171138e+03 
---------------- Step     1030 ----- CPU =      0.5215 (sec) ----------------
PotEng   =  2.6613665e+04 Temp     =  1.6917801e+05 Press    =  8.1415872e+03 
---------------- Step     1040 ----- CPU =      0.5264 (sec) ----------------
PotEng   =  2.6488066e+04 Temp     =  1.3837573e+05 Press    =  3.9920075e+03 
---------------- Step     1050 ----- CPU =      0.5358 (sec) ----------------
PotEng   =  2.7235116e+04 Temp     =  1.5907769e+05 Press    =  6.8071617e+03 
---------------- Step     1060 ----- CPU =      0.5407 (sec) ----------------
PotEng   =  2.6596869e+04 Temp     =  1.4529244e+05 Press    =  5.4679296e+03 
---------------- Step     1070 ----- CPU =      0.5458 (sec) ----------------
PotEng   =  2.6691195e+04 Temp     =  1.5628277e+05 Press    =  7.2879594e+03 
---------------- Step     1080 ----- CPU =      0.5509 (sec) ----------------
PotEng   =  2.6322493e+04 Temp     =  1.5374118e+05 Press    =  7.4387943e+03 
---------------- Step     1090 ----- CPU =      0.5558 (sec) ----------------
PotEng   =  2.6352171e+04 Temp     =  1.4855901e+05 Press    =  6.9325008e+03 
---------------- Step     1100 ----- CPU =      0.5606 (sec) ----------------
PotEng   =  2.7233223e+04 Temp     =  1.5888115e+05 Press    =  8.1508550e+03 
---------------- Step     1110 ----- CPU =      0.5654 (sec) ----------------
PotEng   =  2.6516878e+04 Temp     =  1.2935114e+05 Press    =  3.9541487e+03 
---------------- Step     1120 ----- CPU =      0.5703 (sec) ----------------
PotEng   =  2.6664391e+04 Temp     =  1.4141922e+05 Press    =  4.9916317e+03 
---------------- Step     1130 ----- CPU =      0.5752 (sec) ----------------
PotEng   =  2.6017637e+04 Temp     =  1.4630549e+05 Press    =  6.1145263e+03 
---------------- Step     1140 ----- CPU =      0.5800 (sec) ----------------
PotEng   =  2.6488997e+04 Temp     =  1.4155390e+05 Press    =  4.5670828e+03 
---------------- Step     1150 ----- CPU =      0.5848 (sec) ----------------
PotEng   =  2.7470910e+04 Temp     =  1.4874747e+05 Press    =  5.0079277e+03 
---------------- Step     1160 ----- CPU =      0.5896 (sec) ----------------
PotEng   =  2.7418477e+04 Temp     =  1.7386480e+05 Press    =  9.3640022e+03 
---------------- Step     1170 ----- CPU =      0.5946 (sec) ----------------
PotEng   =  2.7743331e+04 Temp     =  1.3686719e+05 Press    =  2.7688373e+03 
---------------- Step     1180 ----- CPU =      0.5994 (sec) ----------------
PotEng   =  2.8260250e+04 Temp     =  1.3702966e+05 Press    =  3.1860352e+03 
---------------- Step     1190 ----- CPU =      0.6042 (sec) ----------------
PotEng   =  2.8610818e+04 Temp     =  1.5154410e+05 Press    =  4.7935253e+03 
---------------- Step     1200 ----- CPU =      0.6090 (sec) ----------------
PotEng   =  2.8330711e+04 Temp     =  1.6184466e+05 Press    =  6.5125638e+03 
---------------- Step     1210 ----- CPU =      0.6139 (sec) ----------------
PotEng   =  2.7720067e+04 Temp     =  1.4040271e+05 Press    =  3.6090682e+03 
---------------- Step     1220 ----- CPU =      0.6187 (sec) ----------------
PotEng   =  2.9132171e+04 Temp     =  1.7458195e+05 Press    =  8.5828346e+03 
---------------- Step     1230 ----- CPU =      0.6236 (sec) ----------------
PotEng   =  3.0210899e+04 Temp     =  1.5148346e+05 Press    =  3.6073116e+03 
---------------- Step     1240 ----- CPU =      0.6285 (sec) ----------------
PotEng   =  3.1045676e+04 Temp     =  1.3906989e+05 Press    =  7.7113006e+02 
---------------- Step     1250 ----- CPU =      0.6333 (sec) ----------------
PotEng   =  3.0993583e+04 Temp     =  1.5402972e+05 Press    =  3.3066158e+03 
---------------- Step     1260 ----- CPU =      0.6381 (sec) ----------------
PotEng   =  3.1652183e+04 Temp     =  1.4043808e+05 Press    =  1.1003174e+03 
---------------- Step     1270 ----- CPU =      0.6431 (sec) ----------------
PotEng   =  3.0730519e+04 Temp     =  1.5927789e+05 Press    =  4.7649941e+03 
---------------- Step     1280 ----- CPU =      0.6479 (sec) ----------------
PotEng   =  2.9821492e+04 Temp     =  1.5576615e+05 Press    =  4.4138753e+03 
---------------- Step     1290 ----- CPU =      0.6527 (sec) ----------------
PotEng   =  3.1158539e+04 Temp     =  1.5909905e+05 Press    =  4.8497810e+03 
---------------- Step     1300 ----- CPU =      0.6575 (sec) ----------------
PotEng   =  3.0297345e+04 Temp     =  1.6215338e+05 Press    =  5.6149187e+03 
---------------- Step     1310 ----- CPU =      0.6624 (sec) ----------------
PotEng   =  2.8659720e+04 Temp     =  1.5173833e+05 Press    =  4.4211741e+03 
---------------- Step     1320 ----- CPU =      0.6672 (sec) ----------------
PotEng   =  2.8523155e+04 Temp     =  1.6146169e+05 Press    =  5.2208192e+03 
---------------- Step     1330 ----- CPU =      0.6720 (sec) ----------------
PotEng   =  2.8136310e+04 Temp     =  1.5277949e+05 Press    =  4.3097684e+03 
---------------- Step     1340 ----- CPU =      0.6769 (sec) ----------------
PotEng   =  2.7751201e+04 Temp     =  1.7191037e+05 Press    =  7.2947259e+03 
---------------- Step     1350 ----- CPU =      0.6817 (sec) ----------------
PotEng   =  2.7613884e+04 Temp     =  1.4312073e+05 Press    =  2.9144251e+03 
---------------- Step     1360 ----- CPU =      0.6866 (sec) ----------------
PotEng   =  2.7492930e+04 Temp     =  1.5862816e+05 Press    =  5.2744711e+03 
---------------- Step     1370 ----- CPU =      0.6914 (sec) ----------------
PotEng   =  2.6452005e+04 Temp     =  1.4057540e+05 Press    =  3.2261275e+03 
---------------- Step     1380 ----- CPU =      0.6962 (sec) ----------------
PotEng   =  2.6395327e+04 Temp     =  1.4972652e+05 Press    =  4.9603140e+03 
---------------- Step     1390 ----- CPU =      0.7012 (sec) ----------------
PotEng   =  2.6655652e+04 Temp     =  1.5272488e+05 Press    =  5.3072994e+03 
---------------- Step     1400 ----- CPU =      0.7061 (sec) ----------------
PotEng   =  2.6216191e+04 Temp     =  1.4807347e+05 Press    =  4.1569723e+03 
---------------- Step     1410 ----- CPU =      0.7109 (sec) ----------------
PotEng   =  2.7504255e+04 Temp     =  1.4801102e+05 Press    =  3.3840079e+03 
---------------- Step     1420 ----- CPU =      0.7157 (sec) ----------------
PotEng   =  2.7855348e+04 Temp     =  1.4761658e+05 Press    =  2.9272322e+03 
---------------- Step     1430 ----- CPU =      0.7206 (sec) ----------------
PotEng   =  2.8433977e+04 Temp     =  1.6311973e+05 Press    =  5.3546981e+03 
---------------- Step     1440 ----- CPU =      0.7255 (sec) ----------------
PotEng   =  2.9540571e+04 Temp     =  1.4112981e+05 Press    =  1.1842524e+03 
---------------- Step     1450 ----- CPU =      0.7304 (sec) ----------------
PotEng   =  2.9795752e+04 Temp     =  1.5775632e+05 Press    =  2.2887135e+03 
---------------- Step     1460 ----- CPU =      0.7355 (sec) ----------------
PotEng   =  3.1285937e+04 Temp     =  1.3795584e+05 Press    = -1.6735709e+03 
---------------- Step     1470 ----- CPU =      0.7404 (sec) ----------------
PotEng   =  3.2612805e+04 Temp     =  1.6867608e+05 Press    =  2.7900021e+03 
---------------- Step     1480 ----- CPU =      0.7453 (sec) ----------------
PotEng   =  3.1703532e+04 Temp     =  1.5429857e+05 Press    =  1.3158834e+03 
---------------- Step     1490 ----- CPU =      0.7503 (sec) ----------------
PotEng   =  3.0984163e+04 Temp     =  1.5108417e+05 Press    =  7.6018906e+02 
---------------- Step     1500 ----- CPU =      0.7552 (sec) ----------------
PotEng   =  3.0334802e+04 Temp     =  1.5724519e+05 Press    =  2.3849955e+03 
---------------- Step     1510 ----- CPU =      0.7601 (sec) ----------------
PotEng   =  2.8946763e+04 Temp     =  1.6047337e+05 Press    =  3.4089403e+03 
---------------- Step     1520 ----- CPU =      0.7649 (sec) ----------------
PotEng   =  2.9872122e+04 Temp     =  1.5049755e+05 Press    =  2.1540588e+03 
---------------- Step     1530 ----- CPU =      0.7698 (sec) ----------------
PotEng   =  2.8615541e+04 Temp     =  1.4239465e+05 Press    =  1.6111119e+03 
---------------- Step     1540 ----- CPU =      0.7746 (sec) ----------------
PotEng   =  2.8683673e+04 Temp     =  1.5333226e+05 Press    =  3.3240063e+03 
---------------- Step     1550 ----- CPU =      0.7794 (sec) ----------------
PotEng   =  2.7981697e+04 Temp     =  1.4598221e+05 Press    =  2.5740122e+03 
---------------- Step     1560 ----- CPU =      0.7842 (sec) ----------------
PotEng   =  2.6764381e+04 Temp     =  1.4285567e+05 Press    =  4.0860191e+03 
---------------- Step     1570 ----- CPU =      0.7892 (sec) ----------------
PotEng   =  2.6880257e+04 Temp     =  1.4305203e+05 Press    =  3.9538286e+03 
---------------- Step     1580 ----- CPU =      0.7976 (sec) ----------------
PotEng   =  2.6773974e+04 Temp     =  1.5503732e+05 Press    =  6.2818068e+03 
---------------- Step     1590 ----- CPU =      0.8025 (sec) ----------------
PotEng   =  2.7983379e+04 Temp     =  1.5386815e+05 Press    =  5.1885986e+03 
---------------- Step     1600 ----- CPU =      0.8074 (sec) ----------------
PotEng   =  2.8118199e+04 Temp     =  1.4966154e+05 Press    =  3.9588064e+03 
---------------- Step     1610 ----- CPU =      0.8123 (sec) ----------------
PotEng   =  2.8272580e+04 Temp     =  1.5702089e+05 Press    =  4.6235371e+03 
---------------- Step     1620 ----- CPU =      0.8171 (sec) ----------------
PotEng   =  2.8451078e+04 Temp     =  1.3403301e+05 Press    =  4.5301258e+02 
---------------- Step     1630 ----- CPU =      0.8220 (sec) ----------------
PotEng   =  3.0144198e+04 Temp     =  1.6406831e+05 Press    =  5.0904429e+03 
---------------- Step     1640 ----- CPU =      0.8268 (sec) ----------------
PotEng   =  2.9078344e+04 Temp     =  1.5141518e+05 Press    =  3.6052922e+03 
---------------- Step     1650 ----- CPU =      0.8317 (sec) ----------------
PotEng   =  2.8431187e+04 Temp     =  1.4820157e+05 Press    =  3.2649191e+03 
---------------- Step     1660 ----- CPU =      0.8365 (sec) ----------------
PotEng   =  2.7772490e+04 Temp     =  1.5322763e+05 Press    =  4.2565737e+03 
---------------- Step     1670 ----- CPU =      0.8413 (sec) ----------------
PotEng   =  2.8416950e+04 Temp     =  1.6740531e+05 Press    =  6.7552883e+03 
---------------- Step     1680 ----- CPU =      0.8462 (sec) ----------------
PotEng   =  2.8095670e+04 Temp     =  1.4683298e+05 Press    =  5.1670939e+03 
---------------- Step     1690 ----- CPU =      0.8510 (sec) ----------------
PotEng   =  2.7903643e+04 Temp     =  1.5577094e+05 Press    =  5.6702317e+03 
---------------- Step     1700 ----- CPU =      0.8558 (sec) ----------------
PotEng   =  2.7625420e+04 Temp     =  1.5351549e+05 Press    =  5.5814940e+03 
---------------- Step     1710 ----- CPU =      0.8607 (sec) ----------------
PotEng   =  2.7473809e+04 Temp     =  1.3569143e+05 Press    =  3.1646833e+03 
---------------- Step     1720 ----- CPU =      0.8655 (sec) ----------------
PotEng   =  2.7920202e+04 Temp     =  1.5566067e+05 Press    =  6.3294512e+03 
---------------- Step     1730 ----- CPU =      0.8703 (sec) ----------------
PotEng   =  2.7796345e+04 Temp     =  1.5044123e+05 Press    =  5.2602584e+03 
---------------- Step     1740 ----- CPU =      0.8752 (sec) ----------------
PotEng   =  2.9060401e+04 Temp     =  1.5429503e+05 Press    =  4.4154500e+03 
---------------- Step     1750 ----- CPU =      0.8800 (sec) ----------------
PotEng   =  2.8600346e+04 Temp     =  1.3003546e+05 Press    =  8.5392634e+02 
---------------- Step     1760 ----- CPU =      0.8849 (sec) ----------------
PotEng   =  2.8912553e+04 Temp     =  1.4961433e+05 Press    =  3.2213626e+03 
---------------- Step     1770 ----- CPU =      0.8897 (sec) ----------------
PotEng   =  2.8464945e+04 Temp     =  1.4956168e+05 Press    =  3.9123160e+03 
---------------- Step     1780 ----- CPU =      0.8945 (sec) ----------------
PotEng   =  2.9783232e+04 Temp     =  1.5309172e+05 Press    =  3.2663970e+03 
---------------- Step     1790 ----- CPU =      0.8993 (sec) ----------------
PotEng   =  3.0171568e+04 Temp     =  1.5486955e+05 Press    =  2.5510643e+03 
---------------- Step     1800 ----- CPU =      0.9043 (sec) ----------------
PotEng   =  2.9811028e+04 Temp     =  1.4847390e+05 Press    =  1.6889488e+03 
---------------- Step     1810 ----- CPU =      0.9091 (sec) ----------------
PotEng   =  3.0747585e+04 Temp     =  1.4858204e+05 Press    =  1.4480508e+02 
---------------- Step     1820 ----- CPU =      0.9139 (sec) ----------------
PotEng   =  3.1132712e+04 Temp     =  1.4967667e+05 Press    = -2.3755287e+01 
---------------- Step     1830 ----- CPU =      0.9187 (sec) ----------------
PotEng   =  3.0603582e+04 Temp     =  1.4583264e+05 Press    = -8.5593716e+02 
---------------- Step     1840 ----- CPU =      0.9235 (sec) ----------------
PotEng   =  3.0437214e+04 Temp     =  1.6001301e+05 Press    =  1.1303527e+03 
---------------- Step     1850 ----- CPU =      0.9283 (sec) ----------------
PotEng   =  2.9775197e+04 Temp     =  1.6647807e+05 Press    =  2.1685034e+03 
---------------- Step     1860 ----- CPU =      0.9333 (sec) ----------------
PotEng   =  2.8454790e+04 Temp     =  1.5291280e+05 Press    =  9.4910963e+02 
---------------- Step     1870 ----- CPU =      0.9381 (sec) ----------------
PotEng   =  2.9535005e+04 Temp     =  1.4801593e+05 Press    = -4.9880739e+02 
---------------- Step     1880 ----- CPU =      0.9429 (sec) ----------------
PotEng   =  3.0515889e+04 Temp     =  1.3165578e+05 Press    = -3.1909119e+03 
---------------- Step     1890 ----- CPU =      0.9477 (sec) ----------------
PotEng   =  3.0705164e+04 Temp     =  1.5220866e+05 Press    = -6.1031655e+02 
---------------- Step     1900 ----- CPU =      0.9526 (sec) ----------------
PotEng   =  2.9872147e+04 Temp     =  1.5488561e+05 Press    =  4.1606958e+01 
---------------- Step     1910 ----- CPU =      0.9575 (sec) ----------------
PotEng   =  3.0231683e+04 Temp     =  1.4723680e+05 Press    = -1.5522559e+03 
---------------- Step     1920 ----- CPU =      0.9623 (sec) ----------------
PotEng   =  2.9213451e+04 Temp     =  1.4542342e+05 Press    = -8.2864780e+02 
---------------- Step     1930 ----- CPU =      0.9671 (sec) ----------------
PotEng   =  2.8755127e+04 Temp     =  1.5187504e+05 Press    =  1.2783793e+03 
---------------- Step     1940 ----- CPU =      0.9719 (sec) ----------------
PotEng   =  2.7595224e+04 Temp     =  1.5149958e+05 Press    =  8.7102005e+02 
---------------- Step     1950 ----- CPU =      0.9768 (sec) ----------------
PotEng   =  2.8961331e+04 Temp     =  1.4412798e+05 Press    = -2.0980431e+03 
---------------- Step     1960 ----- CPU =      0.9817 (sec) ----------------
PotEng   =  2.9242236e+04 Temp     =  1.4423454e+05 Press    = -2.7966258e+03 
---------------- Step     1970 ----- CPU =      0.9865 (sec) ----------------
PotEng   =  2.9458536e+04 Temp     =  1.4212586e+05 Press    = -3.2413505e+03 
---------------- Step     1980 ----- CPU =      0.9913 (sec) ----------------
PotEng   =  2.7828090e+04 Temp     =  1.5031229e+05 Press    = -1.7170343e+02 
---------------- Step     1990 ----- CPU =      0.9961 (sec) ----------------
PotEng   =  2.8673849e+04 Temp     =  1.5122379e+05 Press    = -1.6849869e+02 
---------------- Step     2000 ----- CPU =      1.0009 (sec) ----------------
PotEng   =  2.8115699e+04 Temp     =  1.4048173e+05 Press    = -1.9730440e+03 
Loop time of 1.00095 on 5 procs for 2000 steps with 180 atoms

Performance: 8.421 ns/day, 2.850 hours/ns, 1998.098 timesteps/s
496.8% CPU use with 1 MPI tasks x 5 OpenMP threads

MPI task timing breakdown:
Section |  min time  |  avg time  |  max time  |%varavg| %total
---------------------------------------------------------------
Pair    | 0.49348    | 0.49348    | 0.49348    |   0.0 | 49.30
Bond    | 0.0043694  | 0.0043694  | 0.0043694  |   0.0 |  0.44
Kspace  | 0.35715    | 0.35715    | 0.35715    |   0.0 | 35.68
Neigh   | 0.0029889  | 0.0029889  | 0.0029889  |   0.0 |  0.30
Comm    | 0.0077843  | 0.0077843  | 0.0077843  |   0.0 |  0.78
Output  | 0.071509   | 0.071509   | 0.071509   |   0.0 |  7.14
Modify  | 0.062437   | 0.062437   | 0.062437   |   0.0 |  6.24
Other   |            | 0.001231   |            |       |  0.12

Nlocal:    180 ave 180 max 180 min
Histogram: 1 0 0 0 0 0 0 0 0 0
Nghost:    1025 ave 1025 max 1025 min
Histogram: 1 0 0 0 0 0 0 0 0 0
Neighs:    6733 ave 6733 max 6733 min
Histogram: 1 0 0 0 0 0 0 0 0 0

Total # of neighbors = 6733
Ave neighs/atom = 37.4056
Ave special neighs/atom = 3.5
Neighbor list builds = 32
Dangerous builds = 0
Total wall time: 0:00:02
