LAMMPS (22 Aug 2018)
OMP_NUM_THREADS environment is not set. Defaulting to 1 thread. (../comm.cpp:87)
  using 1 OpenMP thread(s) per MPI task
# LAMMPS INPUT FILE GENERATED BY SIM SUITE
clear
OMP_NUM_THREADS environment is not set. Defaulting to 1 thread. (../comm.cpp:87)
  using 1 OpenMP thread(s) per MPI task

# Initialize simulation box
package omp     5
set 5 OpenMP thread(s) per MPI task
using multi-threaded neighbor list subroutines
dimension       3
boundary        p p p
units           real
atom_style      full

# Set potential styles
pair_style      hybrid/overlay table2 spline 1000 coul/long  2.25000e+01
kspace_style    pppm 1.e-4
bond_style      harmonic

# Read molecule data and set initial velocities
read_data       /home/mnguyen/bin/PECG/test_PAAf0.5_implicitSol_NVT/tmpGE1w6N2.lammps.data
  orthogonal box = (-27 -27 -27) to (27 27 27)
  1 by 1 by 1 MPI processor grid
  reading atoms ...
  180 atoms
  scanning bonds ...
  2 = max bonds/atom
  reading bonds ...
  165 bonds
  2 = max # of 1-2 neighbors
  2 = max # of 1-3 neighbors
  4 = max # of 1-4 neighbors
  6 = max # of special neighbors
velocity        all create  1.5014e+05 33981 rot yes dist gaussian

# Assign potentials
pair_coeff      *     *     coul/long
pair_coeff          1     1 table2 /home/mnguyen/bin/PECG/test_PAAf0.5_implicitSol_NVT/tmpGE1w6N2.lammps.pair PairPotential4[0]11[0]
WARNING: 5 of 1000 force values in table are inconsistent with -dE/dr.
  Should only be flagged at inflection points (../pair_table2.cpp:484)
WARNING: 491 of 1000 distance values in table with relative error
  over 1e-06 to re-computed values (../pair_table2.cpp:493)
pair_coeff          1     2 table2 /home/mnguyen/bin/PECG/test_PAAf0.5_implicitSol_NVT/tmpGE1w6N2.lammps.pair PairPotential2[0]9[1]
WARNING: 32 of 1000 force values in table are inconsistent with -dE/dr.
  Should only be flagged at inflection points (../pair_table2.cpp:484)
WARNING: 491 of 1000 distance values in table with relative error
  over 1e-06 to re-computed values (../pair_table2.cpp:493)
pair_coeff          2     2 table2 /home/mnguyen/bin/PECG/test_PAAf0.5_implicitSol_NVT/tmpGE1w6N2.lammps.pair PairPotential1[0]8[2]
WARNING: 40 of 1000 force values in table are inconsistent with -dE/dr.
  Should only be flagged at inflection points (../pair_table2.cpp:484)
WARNING: 491 of 1000 distance values in table with relative error
  over 1e-06 to re-computed values (../pair_table2.cpp:493)
bond_coeff          1  2.9624e+02  3.2547e+00

special_bonds     lj 1.0 1.0 1.0 coul 0.0 0.0 1.0
  2 = max # of 1-2 neighbors
  2 = max # of 1-3 neighbors
  6 = max # of special neighbors

variable UExtSin equal 0.592474963246
variable offsetExtSin equal 0.0
variable nperiodExtSin equal 1.0
variable factorExtSin equal 2.0*PI*${nperiodExtSin}/lz
variable factorExtSin equal 2.0*PI*1/lz
variable sineExtSin atom ${UExtSin}*sin(${factorExtSin}*(x-${offsetExtSin}))
variable sineExtSin atom 0.592474963246*sin(${factorExtSin}*(x-${offsetExtSin}))
variable sineExtSin atom 0.592474963246*sin(0.116355283466289*(x-${offsetExtSin}))
variable sineExtSin atom 0.592474963246*sin(0.116355283466289*(x-0))
variable cosineExtSin atom ${UExtSin}*${factorExtSin}*cos(${factorExtSin}*(x-${offsetExtSin}))
variable cosineExtSin atom 0.592474963246*${factorExtSin}*cos(${factorExtSin}*(x-${offsetExtSin}))
variable cosineExtSin atom 0.592474963246*0.116355283466289*cos(${factorExtSin}*(x-${offsetExtSin}))
variable cosineExtSin atom 0.592474963246*0.116355283466289*cos(0.116355283466289*(x-${offsetExtSin}))
variable cosineExtSin atom 0.592474963246*0.116355283466289*cos(0.116355283466289*(x-0))

group atomsInFieldExtSin type 2 4 6 8 10 12
90 atoms in group atomsInFieldExtSin
fix UextExtSin atomsInFieldExtSin addforce 0.0 0.0 v_cosineExtSin energy v_sineExtSin
fix_modify UextExtSin energy yes




#Thermostat & time integration
timestep        4.8780e-02
thermo          10
thermo_style    custom pe temp press
thermo_modify   line multi norm no format float %14.7e

#minimization
minimize        1.e-4 0.0 100 100
WARNING: Using 'neigh_modify every 1 delay 0 check yes' setting during minimization (../min.cpp:168)
PPPM initialization ...
WARNING: System is not charge neutral, net charge = -90 (../kspace.cpp:302)
  using 12-bit tables for long-range coulomb (../kspace.cpp:321)
  G vector (1/distance) = 0.0997632
  grid = 8 8 8
  stencil order = 5
  estimated absolute RMS force accuracy = 0.0217008
  estimated relative force accuracy = 6.53515e-05
  using double precision FFTs
  3d grid and FFT values/proc = 2197 512
No /omp style for force computation currently active
Neighbor list info ...
  update every 1 steps, delay 0 steps, check yes
  max neighbors/atom: 2000, page size: 100000
  master list distance cutoff = 24.5
  ghost atom cutoff = 24.5
  binsize = 12.25, bins = 5 5 5
  2 neighbor lists, perpetual/occasional/extra = 2 0 0
  (1) pair table2, perpetual
      attributes: half, newton on, omp
      pair build: half/bin/newton/omp
      stencil: half/bin/3d/newton
      bin: standard
  (2) pair coul/long, perpetual, copy from (1)
      attributes: half, newton on, omp
      pair build: copy
      stencil: none
      bin: none
WARNING: Inconsistent image flags (../domain.cpp:782)
Per MPI rank memory allocation (min/avg/max) = 13.84 | 13.84 | 13.84 Mbytes
---------------- Step        0 ----- CPU =      0.0000 (sec) ----------------
PotEng   =  8.3797116e+03 Temp     =  1.5014000e+05 Press    =  1.9823843e+04 
---------------- Step       10 ----- CPU =      0.0151 (sec) ----------------
PotEng   =  3.1402519e+03 Temp     =  1.5014000e+05 Press    =  2.5215019e+04 
---------------- Step       20 ----- CPU =      0.0244 (sec) ----------------
PotEng   =  2.1145845e+03 Temp     =  1.5014000e+05 Press    =  2.4904980e+04 
---------------- Step       30 ----- CPU =      0.0311 (sec) ----------------
PotEng   =  4.8433688e+02 Temp     =  1.5014000e+05 Press    =  2.4487697e+04 
---------------- Step       38 ----- CPU =      0.0755 (sec) ----------------
PotEng   = -2.7481880e+04 Temp     =  1.5014000e+05 Press    =  2.4672395e+04 
Loop time of 0.0754809 on 5 procs for 38 steps with 180 atoms

498.7% CPU use with 1 MPI tasks x 5 OpenMP threads

Minimization stats:
  Stopping criterion = max force evaluations
  Energy initial, next-to-last, final = 
         8379.71164889     -27480.0705999     -27481.8796379
  Force two-norm initial, final = 3325.05 1.05998e+06
  Force max component initial, final = 431.995 601153
  Final line search alpha, max atom move = 2.83366e-12 1.70346e-06
  Iterations, force evaluations = 38 109

MPI task timing breakdown:
Section |  min time  |  avg time  |  max time  |%varavg| %total
---------------------------------------------------------------
Pair    | 0.046922   | 0.046922   | 0.046922   |   0.0 | 62.16
Bond    | 0.00035481 | 0.00035481 | 0.00035481 |   0.0 |  0.47
Kspace  | 0.023998   | 0.023998   | 0.023998   |   0.0 | 31.79
Neigh   | 0.00038335 | 0.00038335 | 0.00038335 |   0.0 |  0.51
Comm    | 0.00056564 | 0.00056564 | 0.00056564 |   0.0 |  0.75
Output  | 2.7956e-05 | 2.7956e-05 | 2.7956e-05 |   0.0 |  0.04
Modify  | 0.0027579  | 0.0027579  | 0.0027579  |   0.0 |  3.65
Other   |            | 0.0004707  |            |       |  0.62

Nlocal:    180 ave 180 max 180 min
Histogram: 1 0 0 0 0 0 0 0 0 0
Nghost:    1045 ave 1045 max 1045 min
Histogram: 1 0 0 0 0 0 0 0 0 0
Neighs:    6793 ave 6793 max 6793 min
Histogram: 1 0 0 0 0 0 0 0 0 0

Total # of neighbors = 6793
Ave neighs/atom = 37.7389
Ave special neighs/atom = 3.5
Neighbor list builds = 3
Dangerous builds = 0

#set up integration parameters
fix             timeintegration all nve
fix             thermostat all langevin  1.5014e+05  1.5014e+05  1.0000e-01 84828


#restart thermo
reset_timestep  0
thermo          10
thermo_style    custom pe temp press
WARNING: New thermo_style command, previous thermo_modify settings will be lost (../output.cpp:705)
thermo_modify   line multi norm no format float %14.7e
variable PRESS equal press
variable STEP equal step

#run equilibration
run             2000
PPPM initialization ...
  using 12-bit tables for long-range coulomb (../kspace.cpp:321)
  G vector (1/distance) = 0.0997632
  grid = 8 8 8
  stencil order = 5
  estimated absolute RMS force accuracy = 0.0217008
  estimated relative force accuracy = 6.53515e-05
  using double precision FFTs
  3d grid and FFT values/proc = 2197 512
No /omp style for force computation currently active
WARNING: Inconsistent image flags (../domain.cpp:782)
Per MPI rank memory allocation (min/avg/max) = 12.71 | 12.71 | 12.71 Mbytes
---------------- Step        0 ----- CPU =      0.0000 (sec) ----------------
PotEng   = -2.7481880e+04 Temp     =  1.5014000e+05 Press    =  2.4672395e+04 
---------------- Step       10 ----- CPU =      0.0144 (sec) ----------------
PotEng   =  3.0152542e+03 Temp     =  1.5695747e+05 Press    =  2.5925656e+04 
---------------- Step       20 ----- CPU =      0.0235 (sec) ----------------
PotEng   =  4.5509272e+03 Temp     =  1.5541257e+05 Press    =  2.5077631e+04 
---------------- Step       30 ----- CPU =      0.0297 (sec) ----------------
PotEng   =  5.5141586e+03 Temp     =  1.5133798e+05 Press    =  2.3939135e+04 
---------------- Step       40 ----- CPU =      0.0354 (sec) ----------------
PotEng   =  6.8831395e+03 Temp     =  1.4099812e+05 Press    =  2.1617443e+04 
---------------- Step       50 ----- CPU =      0.0400 (sec) ----------------
PotEng   =  8.3278529e+03 Temp     =  1.7380608e+05 Press    =  2.6282238e+04 
---------------- Step       60 ----- CPU =      0.0445 (sec) ----------------
PotEng   =  9.0108184e+03 Temp     =  1.5084955e+05 Press    =  2.2399775e+04 
---------------- Step       70 ----- CPU =      0.0491 (sec) ----------------
PotEng   =  9.9410201e+03 Temp     =  1.4397536e+05 Press    =  2.0873374e+04 
---------------- Step       80 ----- CPU =      0.0536 (sec) ----------------
PotEng   =  1.0498476e+04 Temp     =  1.4801588e+05 Press    =  2.0550004e+04 
---------------- Step       90 ----- CPU =      0.0582 (sec) ----------------
PotEng   =  1.1166775e+04 Temp     =  1.4819593e+05 Press    =  2.0155282e+04 
---------------- Step      100 ----- CPU =      0.0627 (sec) ----------------
PotEng   =  1.2281124e+04 Temp     =  1.4815758e+05 Press    =  1.9650028e+04 
---------------- Step      110 ----- CPU =      0.0674 (sec) ----------------
PotEng   =  1.2519354e+04 Temp     =  1.4728089e+05 Press    =  1.8960835e+04 
---------------- Step      120 ----- CPU =      0.0719 (sec) ----------------
PotEng   =  1.3033855e+04 Temp     =  1.4927619e+05 Press    =  1.8287379e+04 
---------------- Step      130 ----- CPU =      0.0765 (sec) ----------------
PotEng   =  1.2924694e+04 Temp     =  1.4044536e+05 Press    =  1.5857090e+04 
---------------- Step      140 ----- CPU =      0.0811 (sec) ----------------
PotEng   =  1.2912529e+04 Temp     =  1.5384421e+05 Press    =  1.7669079e+04 
---------------- Step      150 ----- CPU =      0.0857 (sec) ----------------
PotEng   =  1.3704122e+04 Temp     =  1.4419706e+05 Press    =  1.6405216e+04 
---------------- Step      160 ----- CPU =      0.0903 (sec) ----------------
PotEng   =  1.4803702e+04 Temp     =  1.4714756e+05 Press    =  1.6549210e+04 
---------------- Step      170 ----- CPU =      0.0949 (sec) ----------------
PotEng   =  1.7011868e+04 Temp     =  1.5167459e+05 Press    =  1.5964179e+04 
---------------- Step      180 ----- CPU =      0.0995 (sec) ----------------
PotEng   =  1.7893468e+04 Temp     =  1.5734670e+05 Press    =  1.5962853e+04 
---------------- Step      190 ----- CPU =      0.1040 (sec) ----------------
PotEng   =  1.7874811e+04 Temp     =  1.5048089e+05 Press    =  1.4393730e+04 
---------------- Step      200 ----- CPU =      0.1086 (sec) ----------------
PotEng   =  1.8106180e+04 Temp     =  1.5546230e+05 Press    =  1.5321017e+04 
---------------- Step      210 ----- CPU =      0.1132 (sec) ----------------
PotEng   =  1.8809466e+04 Temp     =  1.5480307e+05 Press    =  1.4475510e+04 
---------------- Step      220 ----- CPU =      0.1177 (sec) ----------------
PotEng   =  1.9554936e+04 Temp     =  1.5961520e+05 Press    =  1.4504126e+04 
---------------- Step      230 ----- CPU =      0.1224 (sec) ----------------
PotEng   =  1.9029035e+04 Temp     =  1.4874493e+05 Press    =  1.2485056e+04 
---------------- Step      240 ----- CPU =      0.1270 (sec) ----------------
PotEng   =  1.8612676e+04 Temp     =  1.4614297e+05 Press    =  1.2440959e+04 
---------------- Step      250 ----- CPU =      0.1315 (sec) ----------------
PotEng   =  1.8752148e+04 Temp     =  1.4448591e+05 Press    =  1.1919172e+04 
---------------- Step      260 ----- CPU =      0.1361 (sec) ----------------
PotEng   =  1.8710861e+04 Temp     =  1.4346335e+05 Press    =  1.1269785e+04 
---------------- Step      270 ----- CPU =      0.1406 (sec) ----------------
PotEng   =  1.8350737e+04 Temp     =  1.6342296e+05 Press    =  1.4592025e+04 
---------------- Step      280 ----- CPU =      0.1452 (sec) ----------------
PotEng   =  1.7842615e+04 Temp     =  1.6758734e+05 Press    =  1.5514452e+04 
---------------- Step      290 ----- CPU =      0.1498 (sec) ----------------
PotEng   =  1.7762723e+04 Temp     =  1.5467720e+05 Press    =  1.3577112e+04 
---------------- Step      300 ----- CPU =      0.1543 (sec) ----------------
PotEng   =  1.9117919e+04 Temp     =  1.5048484e+05 Press    =  1.2172084e+04 
---------------- Step      310 ----- CPU =      0.1589 (sec) ----------------
PotEng   =  2.0355536e+04 Temp     =  1.5200939e+05 Press    =  1.2058667e+04 
---------------- Step      320 ----- CPU =      0.1634 (sec) ----------------
PotEng   =  2.1123994e+04 Temp     =  1.6373745e+05 Press    =  1.4167036e+04 
---------------- Step      330 ----- CPU =      0.1679 (sec) ----------------
PotEng   =  2.1159242e+04 Temp     =  1.5592607e+05 Press    =  1.3207194e+04 
---------------- Step      340 ----- CPU =      0.1724 (sec) ----------------
PotEng   =  2.0174548e+04 Temp     =  1.5465379e+05 Press    =  1.3247244e+04 
---------------- Step      350 ----- CPU =      0.1769 (sec) ----------------
PotEng   =  1.9453191e+04 Temp     =  1.6083295e+05 Press    =  1.4071072e+04 
---------------- Step      360 ----- CPU =      0.1813 (sec) ----------------
PotEng   =  1.8241553e+04 Temp     =  1.4176288e+05 Press    =  1.1717813e+04 
---------------- Step      370 ----- CPU =      0.1857 (sec) ----------------
PotEng   =  1.7345389e+04 Temp     =  1.4548599e+05 Press    =  1.1782012e+04 
---------------- Step      380 ----- CPU =      0.1903 (sec) ----------------
PotEng   =  1.9079601e+04 Temp     =  1.5112504e+05 Press    =  1.2069973e+04 
---------------- Step      390 ----- CPU =      0.1949 (sec) ----------------
PotEng   =  1.9570261e+04 Temp     =  1.4445100e+05 Press    =  9.7361721e+03 
---------------- Step      400 ----- CPU =      0.1995 (sec) ----------------
PotEng   =  1.9737176e+04 Temp     =  1.4782479e+05 Press    =  1.0211463e+04 
---------------- Step      410 ----- CPU =      0.2040 (sec) ----------------
PotEng   =  1.9885248e+04 Temp     =  1.5076081e+05 Press    =  1.0339366e+04 
---------------- Step      420 ----- CPU =      0.2085 (sec) ----------------
PotEng   =  1.9835234e+04 Temp     =  1.5691992e+05 Press    =  1.1555275e+04 
---------------- Step      430 ----- CPU =      0.2131 (sec) ----------------
PotEng   =  2.1021349e+04 Temp     =  1.3707306e+05 Press    =  8.0843554e+03 
---------------- Step      440 ----- CPU =      0.2177 (sec) ----------------
PotEng   =  1.9437860e+04 Temp     =  1.5658662e+05 Press    =  1.0901292e+04 
---------------- Step      450 ----- CPU =      0.2224 (sec) ----------------
PotEng   =  2.0742569e+04 Temp     =  1.4940505e+05 Press    =  9.5569709e+03 
---------------- Step      460 ----- CPU =      0.2271 (sec) ----------------
PotEng   =  2.2439334e+04 Temp     =  1.3959990e+05 Press    =  8.1588498e+03 
---------------- Step      470 ----- CPU =      0.2316 (sec) ----------------
PotEng   =  2.3123917e+04 Temp     =  1.5308912e+05 Press    =  9.6261904e+03 
---------------- Step      480 ----- CPU =      0.2362 (sec) ----------------
PotEng   =  2.3193167e+04 Temp     =  1.6047778e+05 Press    =  1.0154380e+04 
---------------- Step      490 ----- CPU =      0.2408 (sec) ----------------
PotEng   =  2.2948576e+04 Temp     =  1.5395521e+05 Press    =  9.7178111e+03 
---------------- Step      500 ----- CPU =      0.2453 (sec) ----------------
PotEng   =  2.3098387e+04 Temp     =  1.4927940e+05 Press    =  8.5158187e+03 
---------------- Step      510 ----- CPU =      0.2498 (sec) ----------------
PotEng   =  2.4262134e+04 Temp     =  1.4327372e+05 Press    =  7.4247988e+03 
---------------- Step      520 ----- CPU =      0.2543 (sec) ----------------
PotEng   =  2.4013580e+04 Temp     =  1.4894755e+05 Press    =  8.9060005e+03 
---------------- Step      530 ----- CPU =      0.2588 (sec) ----------------
PotEng   =  2.5290436e+04 Temp     =  1.4572293e+05 Press    =  6.8701698e+03 
---------------- Step      540 ----- CPU =      0.2634 (sec) ----------------
PotEng   =  2.5134794e+04 Temp     =  1.4330900e+05 Press    =  5.8247948e+03 
---------------- Step      550 ----- CPU =      0.2679 (sec) ----------------
PotEng   =  2.5325225e+04 Temp     =  1.5970116e+05 Press    =  8.2797173e+03 
---------------- Step      560 ----- CPU =      0.2724 (sec) ----------------
PotEng   =  2.4304907e+04 Temp     =  1.4934535e+05 Press    =  7.5646753e+03 
---------------- Step      570 ----- CPU =      0.2770 (sec) ----------------
PotEng   =  2.5116298e+04 Temp     =  1.3956112e+05 Press    =  5.7324452e+03 
---------------- Step      580 ----- CPU =      0.2817 (sec) ----------------
PotEng   =  2.4730382e+04 Temp     =  1.5458610e+05 Press    =  8.5999545e+03 
---------------- Step      590 ----- CPU =      0.2862 (sec) ----------------
PotEng   =  2.6201288e+04 Temp     =  1.4566976e+05 Press    =  7.1514491e+03 
---------------- Step      600 ----- CPU =      0.2908 (sec) ----------------
PotEng   =  2.5931117e+04 Temp     =  1.5726738e+05 Press    =  9.3332225e+03 
---------------- Step      610 ----- CPU =      0.2954 (sec) ----------------
PotEng   =  2.5334608e+04 Temp     =  1.5690444e+05 Press    =  9.2639119e+03 
---------------- Step      620 ----- CPU =      0.3000 (sec) ----------------
PotEng   =  2.5701834e+04 Temp     =  1.2979509e+05 Press    =  4.1940880e+03 
---------------- Step      630 ----- CPU =      0.3045 (sec) ----------------
PotEng   =  2.6576550e+04 Temp     =  1.4235901e+05 Press    =  5.7185375e+03 
---------------- Step      640 ----- CPU =      0.3092 (sec) ----------------
PotEng   =  2.5802257e+04 Temp     =  1.5520326e+05 Press    =  7.7354179e+03 
---------------- Step      650 ----- CPU =      0.3136 (sec) ----------------
PotEng   =  2.4600316e+04 Temp     =  1.4658396e+05 Press    =  6.7622052e+03 
---------------- Step      660 ----- CPU =      0.3181 (sec) ----------------
PotEng   =  2.6319013e+04 Temp     =  1.6406761e+05 Press    =  8.6337726e+03 
---------------- Step      670 ----- CPU =      0.3226 (sec) ----------------
PotEng   =  2.7100917e+04 Temp     =  1.5892307e+05 Press    =  6.9118339e+03 
---------------- Step      680 ----- CPU =      0.3272 (sec) ----------------
PotEng   =  2.6785577e+04 Temp     =  1.5437345e+05 Press    =  6.8547486e+03 
---------------- Step      690 ----- CPU =      0.3315 (sec) ----------------
PotEng   =  2.6368898e+04 Temp     =  1.4721641e+05 Press    =  5.5622115e+03 
---------------- Step      700 ----- CPU =      0.3359 (sec) ----------------
PotEng   =  2.6198656e+04 Temp     =  1.6342593e+05 Press    =  7.9992349e+03 
---------------- Step      710 ----- CPU =      0.3402 (sec) ----------------
PotEng   =  2.6429153e+04 Temp     =  1.5719634e+05 Press    =  6.8634511e+03 
---------------- Step      720 ----- CPU =      0.3447 (sec) ----------------
PotEng   =  2.6686541e+04 Temp     =  1.4471478e+05 Press    =  4.8231556e+03 
---------------- Step      730 ----- CPU =      0.3490 (sec) ----------------
PotEng   =  2.7036110e+04 Temp     =  1.5079202e+05 Press    =  5.5551643e+03 
---------------- Step      740 ----- CPU =      0.3534 (sec) ----------------
PotEng   =  2.8486298e+04 Temp     =  1.6273294e+05 Press    =  5.7617176e+03 
---------------- Step      750 ----- CPU =      0.3576 (sec) ----------------
PotEng   =  2.9851261e+04 Temp     =  1.4802569e+05 Press    =  2.7786464e+03 
---------------- Step      760 ----- CPU =      0.3620 (sec) ----------------
PotEng   =  3.0018062e+04 Temp     =  1.4914149e+05 Press    =  2.9173507e+03 
---------------- Step      770 ----- CPU =      0.3665 (sec) ----------------
PotEng   =  2.9453554e+04 Temp     =  1.5259676e+05 Press    =  3.8668639e+03 
---------------- Step      780 ----- CPU =      0.3708 (sec) ----------------
PotEng   =  2.8490355e+04 Temp     =  1.4659520e+05 Press    =  3.3068863e+03 
---------------- Step      790 ----- CPU =      0.3752 (sec) ----------------
PotEng   =  2.8757133e+04 Temp     =  1.4263023e+05 Press    =  3.2219113e+03 
---------------- Step      800 ----- CPU =      0.3795 (sec) ----------------
PotEng   =  2.8334218e+04 Temp     =  1.5476659e+05 Press    =  5.2898550e+03 
---------------- Step      810 ----- CPU =      0.3838 (sec) ----------------
PotEng   =  2.7613801e+04 Temp     =  1.4018582e+05 Press    =  2.8190223e+03 
---------------- Step      820 ----- CPU =      0.3881 (sec) ----------------
PotEng   =  2.7213465e+04 Temp     =  1.5740874e+05 Press    =  6.1172471e+03 
---------------- Step      830 ----- CPU =      0.3927 (sec) ----------------
PotEng   =  2.6979052e+04 Temp     =  1.4148504e+05 Press    =  4.3585102e+03 
---------------- Step      840 ----- CPU =      0.3972 (sec) ----------------
PotEng   =  2.6262740e+04 Temp     =  1.4149968e+05 Press    =  4.0165692e+03 
---------------- Step      850 ----- CPU =      0.4017 (sec) ----------------
PotEng   =  2.5882547e+04 Temp     =  1.5923040e+05 Press    =  7.9587128e+03 
---------------- Step      860 ----- CPU =      0.4061 (sec) ----------------
PotEng   =  2.6893234e+04 Temp     =  1.5811017e+05 Press    =  7.1271460e+03 
---------------- Step      870 ----- CPU =      0.4106 (sec) ----------------
PotEng   =  2.6822702e+04 Temp     =  1.6515854e+05 Press    =  8.7671035e+03 
---------------- Step      880 ----- CPU =      0.4151 (sec) ----------------
PotEng   =  2.8519067e+04 Temp     =  1.5022806e+05 Press    =  5.2229085e+03 
---------------- Step      890 ----- CPU =      0.4197 (sec) ----------------
PotEng   =  2.9404778e+04 Temp     =  1.5305459e+05 Press    =  4.7419025e+03 
---------------- Step      900 ----- CPU =      0.4241 (sec) ----------------
PotEng   =  2.9666052e+04 Temp     =  1.4581140e+05 Press    =  4.0780153e+03 
---------------- Step      910 ----- CPU =      0.4286 (sec) ----------------
PotEng   =  2.9232347e+04 Temp     =  1.4563371e+05 Press    =  4.3742865e+03 
---------------- Step      920 ----- CPU =      0.4329 (sec) ----------------
PotEng   =  3.0164077e+04 Temp     =  1.5276471e+05 Press    =  4.9558301e+03 
---------------- Step      930 ----- CPU =      0.4373 (sec) ----------------
PotEng   =  2.9148207e+04 Temp     =  1.5497039e+05 Press    =  6.4377282e+03 
---------------- Step      940 ----- CPU =      0.4416 (sec) ----------------
PotEng   =  2.8268805e+04 Temp     =  1.5796452e+05 Press    =  7.6808315e+03 
---------------- Step      950 ----- CPU =      0.4461 (sec) ----------------
PotEng   =  2.7137060e+04 Temp     =  1.5122426e+05 Press    =  5.9576710e+03 
---------------- Step      960 ----- CPU =      0.4505 (sec) ----------------
PotEng   =  2.7844025e+04 Temp     =  1.7031462e+05 Press    =  8.5116120e+03 
---------------- Step      970 ----- CPU =      0.4548 (sec) ----------------
PotEng   =  2.7227709e+04 Temp     =  1.5088161e+05 Press    =  5.5075830e+03 
---------------- Step      980 ----- CPU =      0.4592 (sec) ----------------
PotEng   =  2.3885012e+04 Temp     =  1.6924352e+05 Press    =  7.6287776e+03 
---------------- Step      990 ----- CPU =      0.4638 (sec) ----------------
PotEng   =  2.7794421e+04 Temp     =  1.4989537e+05 Press    =  4.0389977e+03 
---------------- Step     1000 ----- CPU =      0.4680 (sec) ----------------
PotEng   =  2.8158630e+04 Temp     =  1.6194200e+05 Press    =  5.8952539e+03 
---------------- Step     1010 ----- CPU =      0.4724 (sec) ----------------
PotEng   =  2.7656459e+04 Temp     =  1.6006413e+05 Press    =  5.7042577e+03 
---------------- Step     1020 ----- CPU =      0.4766 (sec) ----------------
PotEng   =  2.8115617e+04 Temp     =  1.4202025e+05 Press    =  1.9129322e+03 
---------------- Step     1030 ----- CPU =      0.4809 (sec) ----------------
PotEng   =  2.9367048e+04 Temp     =  1.4802483e+05 Press    =  2.3455764e+03 
---------------- Step     1040 ----- CPU =      0.4852 (sec) ----------------
PotEng   =  3.0040731e+04 Temp     =  1.5121493e+05 Press    =  2.4191096e+03 
---------------- Step     1050 ----- CPU =      0.4897 (sec) ----------------
PotEng   =  2.9411132e+04 Temp     =  1.6624799e+05 Press    =  5.2292296e+03 
---------------- Step     1060 ----- CPU =      0.4943 (sec) ----------------
PotEng   =  2.8527617e+04 Temp     =  1.5528409e+05 Press    =  4.0046999e+03 
---------------- Step     1070 ----- CPU =      0.4987 (sec) ----------------
PotEng   =  2.8441050e+04 Temp     =  1.6258034e+05 Press    =  4.8566146e+03 
---------------- Step     1080 ----- CPU =      0.5032 (sec) ----------------
PotEng   =  3.0727496e+04 Temp     =  1.5623526e+05 Press    =  2.6248244e+03 
---------------- Step     1090 ----- CPU =      0.5076 (sec) ----------------
PotEng   =  3.0169900e+04 Temp     =  1.3843049e+05 Press    = -1.3070366e+03 
---------------- Step     1100 ----- CPU =      0.5121 (sec) ----------------
PotEng   =  2.9754788e+04 Temp     =  1.5051733e+05 Press    =  1.4960197e+03 
---------------- Step     1110 ----- CPU =      0.5167 (sec) ----------------
PotEng   =  3.0101648e+04 Temp     =  1.5284125e+05 Press    =  2.4742469e+03 
---------------- Step     1120 ----- CPU =      0.5213 (sec) ----------------
PotEng   =  2.8785853e+04 Temp     =  1.4830782e+05 Press    =  2.5461750e+03 
---------------- Step     1130 ----- CPU =      0.5257 (sec) ----------------
PotEng   =  2.8117499e+04 Temp     =  1.5796145e+05 Press    =  4.2504046e+03 
---------------- Step     1140 ----- CPU =      0.5302 (sec) ----------------
PotEng   =  2.6927937e+04 Temp     =  1.5936496e+05 Press    =  4.7655953e+03 
---------------- Step     1150 ----- CPU =      0.5346 (sec) ----------------
PotEng   =  2.6454689e+04 Temp     =  1.4344786e+05 Press    =  2.8833151e+03 
---------------- Step     1160 ----- CPU =      0.5392 (sec) ----------------
PotEng   =  2.6720764e+04 Temp     =  1.6135895e+05 Press    =  5.4178981e+03 
---------------- Step     1170 ----- CPU =      0.5438 (sec) ----------------
PotEng   =  2.7439891e+04 Temp     =  1.4868671e+05 Press    =  2.5548472e+03 
---------------- Step     1180 ----- CPU =      0.5482 (sec) ----------------
PotEng   =  2.7093503e+04 Temp     =  1.5651035e+05 Press    =  4.1775366e+03 
---------------- Step     1190 ----- CPU =      0.5526 (sec) ----------------
PotEng   =  2.8040030e+04 Temp     =  1.6015824e+05 Press    =  4.4119573e+03 
---------------- Step     1200 ----- CPU =      0.5569 (sec) ----------------
PotEng   =  2.7075411e+04 Temp     =  1.5270794e+05 Press    =  3.8802567e+03 
---------------- Step     1210 ----- CPU =      0.5612 (sec) ----------------
PotEng   =  2.7230033e+04 Temp     =  1.5816084e+05 Press    =  4.9970050e+03 
---------------- Step     1220 ----- CPU =      0.5656 (sec) ----------------
PotEng   =  2.7465673e+04 Temp     =  1.5947694e+05 Press    =  4.0873507e+03 
---------------- Step     1230 ----- CPU =      0.5700 (sec) ----------------
PotEng   =  2.6452389e+04 Temp     =  1.4349494e+05 Press    =  2.4867355e+03 
---------------- Step     1240 ----- CPU =      0.5742 (sec) ----------------
PotEng   =  2.7503975e+04 Temp     =  1.4403442e+05 Press    =  2.2206410e+03 
---------------- Step     1250 ----- CPU =      0.5787 (sec) ----------------
PotEng   =  2.6503017e+04 Temp     =  1.5152925e+05 Press    =  4.9415587e+03 
---------------- Step     1260 ----- CPU =      0.5831 (sec) ----------------
PotEng   =  2.5469096e+04 Temp     =  1.4786380e+05 Press    =  5.4093035e+03 
---------------- Step     1270 ----- CPU =      0.5874 (sec) ----------------
PotEng   =  2.5944735e+04 Temp     =  1.4340668e+05 Press    =  5.3072677e+03 
---------------- Step     1280 ----- CPU =      0.5917 (sec) ----------------
PotEng   =  2.5790021e+04 Temp     =  1.5885979e+05 Press    =  7.9028544e+03 
---------------- Step     1290 ----- CPU =      0.5960 (sec) ----------------
PotEng   =  2.6042260e+04 Temp     =  1.4981864e+05 Press    =  5.8850254e+03 
---------------- Step     1300 ----- CPU =      0.6003 (sec) ----------------
PotEng   =  2.5467308e+04 Temp     =  1.4378855e+05 Press    =  4.7720646e+03 
---------------- Step     1310 ----- CPU =      0.6047 (sec) ----------------
PotEng   =  2.5199810e+04 Temp     =  1.4202036e+05 Press    =  4.7993144e+03 
---------------- Step     1320 ----- CPU =      0.6093 (sec) ----------------
PotEng   =  2.5603736e+04 Temp     =  1.5917864e+05 Press    =  7.5670466e+03 
---------------- Step     1330 ----- CPU =      0.6138 (sec) ----------------
PotEng   =  2.4478102e+04 Temp     =  1.4272599e+05 Press    =  4.8160785e+03 
---------------- Step     1340 ----- CPU =      0.6185 (sec) ----------------
PotEng   =  2.4290272e+04 Temp     =  1.4537594e+05 Press    =  4.5770817e+03 
---------------- Step     1350 ----- CPU =      0.6230 (sec) ----------------
PotEng   =  2.5372615e+04 Temp     =  1.4696750e+05 Press    =  4.6737142e+03 
---------------- Step     1360 ----- CPU =      0.6275 (sec) ----------------
PotEng   =  2.3032343e+04 Temp     =  1.7004233e+05 Press    =  8.5743101e+03 
---------------- Step     1370 ----- CPU =      0.6321 (sec) ----------------
PotEng   =  2.7451505e+04 Temp     =  1.5958019e+05 Press    =  7.5281431e+03 
---------------- Step     1380 ----- CPU =      0.6368 (sec) ----------------
PotEng   =  2.8971095e+04 Temp     =  1.4421119e+05 Press    =  4.0214801e+03 
---------------- Step     1390 ----- CPU =      0.6413 (sec) ----------------
PotEng   =  3.0338651e+04 Temp     =  1.5679143e+05 Press    =  3.7415561e+03 
---------------- Step     1400 ----- CPU =      0.6458 (sec) ----------------
PotEng   =  2.9309247e+04 Temp     =  1.4152987e+05 Press    =  1.1196062e+03 
---------------- Step     1410 ----- CPU =      0.6504 (sec) ----------------
PotEng   =  2.9875063e+04 Temp     =  1.4570405e+05 Press    =  1.4506945e+03 
---------------- Step     1420 ----- CPU =      0.6549 (sec) ----------------
PotEng   =  2.8155723e+04 Temp     =  1.5224785e+05 Press    =  2.9418818e+03 
---------------- Step     1430 ----- CPU =      0.6595 (sec) ----------------
PotEng   =  2.8644410e+04 Temp     =  1.7214518e+05 Press    =  5.1536862e+03 
---------------- Step     1440 ----- CPU =      0.6642 (sec) ----------------
PotEng   =  2.9253142e+04 Temp     =  1.4811720e+05 Press    =  7.6887392e+02 
---------------- Step     1450 ----- CPU =      0.6688 (sec) ----------------
PotEng   =  2.9770938e+04 Temp     =  1.5568076e+05 Press    =  1.9986294e+03 
---------------- Step     1460 ----- CPU =      0.6733 (sec) ----------------
PotEng   =  2.8870919e+04 Temp     =  1.5404065e+05 Press    =  2.5186688e+03 
---------------- Step     1470 ----- CPU =      0.6778 (sec) ----------------
PotEng   =  2.9173317e+04 Temp     =  1.5648465e+05 Press    =  2.3672870e+03 
---------------- Step     1480 ----- CPU =      0.6824 (sec) ----------------
PotEng   =  2.6853957e+04 Temp     =  1.4311710e+05 Press    =  1.8284263e+03 
---------------- Step     1490 ----- CPU =      0.6871 (sec) ----------------
PotEng   =  2.6453309e+04 Temp     =  1.4858402e+05 Press    =  2.8576706e+03 
---------------- Step     1500 ----- CPU =      0.6917 (sec) ----------------
PotEng   =  2.5845770e+04 Temp     =  1.4692990e+05 Press    =  3.1795461e+03 
---------------- Step     1510 ----- CPU =      0.6963 (sec) ----------------
PotEng   =  2.5764386e+04 Temp     =  1.5711724e+05 Press    =  3.8058180e+03 
---------------- Step     1520 ----- CPU =      0.7010 (sec) ----------------
PotEng   =  2.6019935e+04 Temp     =  1.5533597e+05 Press    =  2.6829206e+03 
---------------- Step     1530 ----- CPU =      0.7055 (sec) ----------------
PotEng   =  2.6066523e+04 Temp     =  1.4840357e+05 Press    =  1.9826478e+03 
---------------- Step     1540 ----- CPU =      0.7100 (sec) ----------------
PotEng   =  2.6147218e+04 Temp     =  1.4990517e+05 Press    =  2.3690583e+03 
---------------- Step     1550 ----- CPU =      0.7148 (sec) ----------------
PotEng   =  2.6149140e+04 Temp     =  1.5358634e+05 Press    =  3.5097357e+03 
---------------- Step     1560 ----- CPU =      0.7195 (sec) ----------------
PotEng   =  2.6016888e+04 Temp     =  1.4801257e+05 Press    =  2.9380820e+03 
---------------- Step     1570 ----- CPU =      0.7240 (sec) ----------------
PotEng   =  2.6135381e+04 Temp     =  1.4400888e+05 Press    =  1.9045196e+03 
---------------- Step     1580 ----- CPU =      0.7300 (sec) ----------------
PotEng   =  2.7473845e+04 Temp     =  1.5244763e+05 Press    =  2.0650098e+03 
---------------- Step     1590 ----- CPU =      0.7346 (sec) ----------------
PotEng   =  2.7991535e+04 Temp     =  1.5619917e+05 Press    =  2.6916927e+03 
---------------- Step     1600 ----- CPU =      0.7391 (sec) ----------------
PotEng   =  2.7545288e+04 Temp     =  1.5437502e+05 Press    =  2.5592498e+03 
---------------- Step     1610 ----- CPU =      0.7438 (sec) ----------------
PotEng   =  2.5993931e+04 Temp     =  1.5319953e+05 Press    =  1.7479103e+03 
---------------- Step     1620 ----- CPU =      0.7485 (sec) ----------------
PotEng   =  2.5064098e+04 Temp     =  1.4465015e+05 Press    =  4.9280275e+01 
---------------- Step     1630 ----- CPU =      0.7531 (sec) ----------------
PotEng   =  2.4745306e+04 Temp     =  1.5279304e+05 Press    =  1.3289748e+03 
---------------- Step     1640 ----- CPU =      0.7578 (sec) ----------------
PotEng   =  2.7801480e+04 Temp     =  1.5378468e+05 Press    =  1.8053906e+03 
---------------- Step     1650 ----- CPU =      0.7623 (sec) ----------------
PotEng   =  2.0968071e+04 Temp     =  1.5551076e+05 Press    =  2.6232759e+03 
---------------- Step     1660 ----- CPU =      0.7669 (sec) ----------------
PotEng   =  2.6912725e+04 Temp     =  1.4145723e+05 Press    =  1.5413241e+03 
---------------- Step     1670 ----- CPU =      0.7715 (sec) ----------------
PotEng   =  2.6490589e+04 Temp     =  1.4931927e+05 Press    =  1.3704047e+03 
---------------- Step     1680 ----- CPU =      0.7762 (sec) ----------------
PotEng   =  2.5634272e+04 Temp     =  1.5624715e+05 Press    =  2.9852202e+03 
---------------- Step     1690 ----- CPU =      0.7809 (sec) ----------------
PotEng   =  2.3842276e+04 Temp     =  1.4954091e+05 Press    =  1.6228941e+03 
---------------- Step     1700 ----- CPU =      0.7856 (sec) ----------------
PotEng   =  2.6366151e+04 Temp     =  1.6239607e+05 Press    =  3.6699231e+03 
---------------- Step     1710 ----- CPU =      0.7903 (sec) ----------------
PotEng   =  2.6333887e+04 Temp     =  1.4605450e+05 Press    =  1.9910145e+03 
---------------- Step     1720 ----- CPU =      0.7949 (sec) ----------------
PotEng   =  2.5866010e+04 Temp     =  1.5652369e+05 Press    =  3.6362079e+03 
---------------- Step     1730 ----- CPU =      0.7994 (sec) ----------------
PotEng   =  2.6936844e+04 Temp     =  1.6402738e+05 Press    =  4.0096581e+03 
---------------- Step     1740 ----- CPU =      0.8040 (sec) ----------------
PotEng   =  2.7500016e+04 Temp     =  1.4996909e+05 Press    =  2.0720309e+02 
---------------- Step     1750 ----- CPU =      0.8086 (sec) ----------------
PotEng   =  2.7778476e+04 Temp     =  1.5265798e+05 Press    = -9.6494909e+02 
---------------- Step     1760 ----- CPU =      0.8132 (sec) ----------------
PotEng   =  2.9725686e+04 Temp     =  2.0583965e+05 Press    =  6.0922602e+03 
---------------- Step     1770 ----- CPU =      0.8180 (sec) ----------------
PotEng   =  2.9972731e+04 Temp     =  1.5859277e+05 Press    = -9.1694919e+02 
---------------- Step     1780 ----- CPU =      0.8226 (sec) ----------------
PotEng   =  3.0126080e+04 Temp     =  1.6883123e+05 Press    =  5.0253536e+02 
---------------- Step     1790 ----- CPU =      0.8272 (sec) ----------------
PotEng   =  3.0900541e+04 Temp     =  1.5031916e+05 Press    = -2.5375092e+03 
---------------- Step     1800 ----- CPU =      0.8322 (sec) ----------------
PotEng   =  3.1907248e+04 Temp     =  1.5843134e+05 Press    = -1.7510022e+03 
---------------- Step     1810 ----- CPU =      0.8367 (sec) ----------------
PotEng   =  3.3124779e+04 Temp     =  1.3729555e+05 Press    = -5.8551235e+03 
---------------- Step     1820 ----- CPU =      0.8413 (sec) ----------------
PotEng   =  3.2996272e+04 Temp     =  1.5792796e+05 Press    = -2.6984741e+03 
---------------- Step     1830 ----- CPU =      0.8460 (sec) ----------------
PotEng   =  3.2403822e+04 Temp     =  1.5864272e+05 Press    = -1.9714554e+03 
---------------- Step     1840 ----- CPU =      0.8506 (sec) ----------------
PotEng   =  3.2779924e+04 Temp     =  1.4919514e+05 Press    = -3.2614972e+03 
---------------- Step     1850 ----- CPU =      0.8552 (sec) ----------------
PotEng   =  3.3830412e+04 Temp     =  1.5439421e+05 Press    = -2.3286186e+03 
---------------- Step     1860 ----- CPU =      0.8597 (sec) ----------------
PotEng   =  3.2262090e+04 Temp     =  1.5426905e+05 Press    = -1.7179341e+03 
---------------- Step     1870 ----- CPU =      0.8644 (sec) ----------------
PotEng   =  3.1328255e+04 Temp     =  1.6823308e+05 Press    =  2.5978397e+03 
---------------- Step     1880 ----- CPU =      0.8690 (sec) ----------------
PotEng   =  3.0869186e+04 Temp     =  1.4479306e+05 Press    =  5.9531529e+02 
---------------- Step     1890 ----- CPU =      0.8737 (sec) ----------------
PotEng   =  3.1946901e+04 Temp     =  1.4213874e+05 Press    = -1.6255657e+02 
---------------- Step     1900 ----- CPU =      0.8786 (sec) ----------------
PotEng   =  3.1777424e+04 Temp     =  1.4821002e+05 Press    =  9.6495909e+02 
---------------- Step     1910 ----- CPU =      0.8831 (sec) ----------------
PotEng   =  3.1237165e+04 Temp     =  1.4438152e+05 Press    =  6.5531915e+02 
---------------- Step     1920 ----- CPU =      0.8877 (sec) ----------------
PotEng   =  3.1520330e+04 Temp     =  1.5311438e+05 Press    =  2.0511545e+03 
---------------- Step     1930 ----- CPU =      0.8924 (sec) ----------------
PotEng   =  3.1702695e+04 Temp     =  1.5695216e+05 Press    =  3.3217976e+03 
---------------- Step     1940 ----- CPU =      0.8970 (sec) ----------------
PotEng   =  3.1402431e+04 Temp     =  1.6280159e+05 Press    =  3.9289560e+03 
---------------- Step     1950 ----- CPU =      0.9016 (sec) ----------------
PotEng   =  2.9258073e+04 Temp     =  1.3969898e+05 Press    =  9.1593958e+02 
---------------- Step     1960 ----- CPU =      0.9064 (sec) ----------------
PotEng   =  2.7958273e+04 Temp     =  1.5309347e+05 Press    =  4.0735076e+03 
---------------- Step     1970 ----- CPU =      0.9110 (sec) ----------------
PotEng   =  2.6863707e+04 Temp     =  1.6683410e+05 Press    =  6.9398628e+03 
---------------- Step     1980 ----- CPU =      0.9155 (sec) ----------------
PotEng   =  2.6650915e+04 Temp     =  1.5319531e+05 Press    =  3.8157497e+03 
---------------- Step     1990 ----- CPU =      0.9200 (sec) ----------------
PotEng   =  2.6181273e+04 Temp     =  1.5179351e+05 Press    =  4.2442967e+03 
---------------- Step     2000 ----- CPU =      0.9245 (sec) ----------------
PotEng   =  2.5960677e+04 Temp     =  1.5390846e+05 Press    =  4.5714328e+03 
Loop time of 0.924496 on 5 procs for 2000 steps with 180 atoms

Performance: 9.118 ns/day, 2.632 hours/ns, 2163.342 timesteps/s
496.3% CPU use with 1 MPI tasks x 5 OpenMP threads

MPI task timing breakdown:
Section |  min time  |  avg time  |  max time  |%varavg| %total
---------------------------------------------------------------
Pair    | 0.48785    | 0.48785    | 0.48785    |   0.0 | 52.77
Bond    | 0.004382   | 0.004382   | 0.004382   |   0.0 |  0.47
Kspace  | 0.35594    | 0.35594    | 0.35594    |   0.0 | 38.50
Neigh   | 0.0033153  | 0.0033153  | 0.0033153  |   0.0 |  0.36
Comm    | 0.0077116  | 0.0077116  | 0.0077116  |   0.0 |  0.83
Output  | 0.00093773 | 0.00093773 | 0.00093773 |   0.0 |  0.10
Modify  | 0.063207   | 0.063207   | 0.063207   |   0.0 |  6.84
Other   |            | 0.00115    |            |       |  0.12

Nlocal:    180 ave 180 max 180 min
Histogram: 1 0 0 0 0 0 0 0 0 0
Nghost:    1041 ave 1041 max 1041 min
Histogram: 1 0 0 0 0 0 0 0 0 0
Neighs:    6803 ave 6803 max 6803 min
Histogram: 1 0 0 0 0 0 0 0 0 0

Total # of neighbors = 6803
Ave neighs/atom = 37.7944
Ave special neighs/atom = 3.5
Neighbor list builds = 33
Dangerous builds = 0

#restart thermo
reset_timestep  0
thermo          10
thermo_style    custom pe temp press
WARNING: New thermo_style command, previous thermo_modify settings will be lost (../output.cpp:705)
thermo_modify   line multi norm no format float %14.7e

#setup trajectory output
dump            myDump all custom 10 /home/mnguyen/bin/PECG/test_PAAf0.5_implicitSol_NVT/tmpGE1w6N2.trj.lammpstrj id type x y z mol
dump_modify     myDump element A- A
dump_modify     myDump sort id
dump_modify     myDump format line  "%d %d %14.7e %14.7e %14.7e %d"

#run production
run             2000
PPPM initialization ...
  using 12-bit tables for long-range coulomb (../kspace.cpp:321)
  G vector (1/distance) = 0.0997632
  grid = 8 8 8
  stencil order = 5
  estimated absolute RMS force accuracy = 0.0217008
  estimated relative force accuracy = 6.53515e-05
  using double precision FFTs
  3d grid and FFT values/proc = 2197 512
No /omp style for force computation currently active
WARNING: Inconsistent image flags (../domain.cpp:782)
Per MPI rank memory allocation (min/avg/max) = 13.98 | 13.98 | 13.98 Mbytes
---------------- Step        0 ----- CPU =      0.0000 (sec) ----------------
PotEng   =  2.5960677e+04 Temp     =  1.5390846e+05 Press    =  4.5714328e+03 
---------------- Step       10 ----- CPU =      0.0144 (sec) ----------------
PotEng   =  2.6210710e+04 Temp     =  1.6595396e+05 Press    =  6.2454329e+03 
---------------- Step       20 ----- CPU =      0.0239 (sec) ----------------
PotEng   =  2.7128393e+04 Temp     =  1.6171334e+05 Press    =  4.7834353e+03 
---------------- Step       30 ----- CPU =      0.0309 (sec) ----------------
PotEng   =  2.7641528e+04 Temp     =  1.4477515e+05 Press    =  1.4680272e+03 
---------------- Step       40 ----- CPU =      0.0368 (sec) ----------------
PotEng   =  2.7433050e+04 Temp     =  1.5973698e+05 Press    =  3.8080868e+03 
---------------- Step       50 ----- CPU =      0.0418 (sec) ----------------
PotEng   =  2.5869441e+04 Temp     =  1.5454509e+05 Press    =  3.9012312e+03 
---------------- Step       60 ----- CPU =      0.0466 (sec) ----------------
PotEng   =  2.2457026e+04 Temp     =  1.5974262e+05 Press    =  4.1295963e+03 
---------------- Step       70 ----- CPU =      0.0516 (sec) ----------------
PotEng   =  2.9099361e+04 Temp     =  1.4563102e+05 Press    =  6.1254363e+02 
---------------- Step       80 ----- CPU =      0.0565 (sec) ----------------
PotEng   =  3.0106261e+04 Temp     =  1.4147749e+05 Press    = -6.6284552e+02 
---------------- Step       90 ----- CPU =      0.0613 (sec) ----------------
PotEng   =  2.9766580e+04 Temp     =  1.4951376e+05 Press    =  7.7451056e+02 
---------------- Step      100 ----- CPU =      0.0662 (sec) ----------------
PotEng   =  2.9589848e+04 Temp     =  1.5374466e+05 Press    =  1.5057242e+03 
---------------- Step      110 ----- CPU =      0.0711 (sec) ----------------
PotEng   =  2.9247808e+04 Temp     =  1.5186690e+05 Press    =  1.3847749e+03 
---------------- Step      120 ----- CPU =      0.0759 (sec) ----------------
PotEng   =  2.9062973e+04 Temp     =  1.3923032e+05 Press    =  9.0512410e+02 
---------------- Step      130 ----- CPU =      0.0809 (sec) ----------------
PotEng   =  3.0499536e+04 Temp     =  1.4625863e+05 Press    =  1.0600323e+03 
---------------- Step      140 ----- CPU =      0.0858 (sec) ----------------
PotEng   =  3.3257585e+04 Temp     =  1.6836252e+05 Press    =  3.3353305e+03 
---------------- Step      150 ----- CPU =      0.0906 (sec) ----------------
PotEng   =  3.3147038e+04 Temp     =  1.6543893e+05 Press    =  2.7056779e+03 
---------------- Step      160 ----- CPU =      0.0955 (sec) ----------------
PotEng   =  3.2420581e+04 Temp     =  1.4530764e+05 Press    = -3.8273912e+01 
---------------- Step      170 ----- CPU =      0.1005 (sec) ----------------
PotEng   =  3.3121040e+04 Temp     =  1.5903244e+05 Press    =  1.7892833e+03 
---------------- Step      180 ----- CPU =      0.1054 (sec) ----------------
PotEng   =  3.2130606e+04 Temp     =  1.5439211e+05 Press    =  1.4481949e+03 
---------------- Step      190 ----- CPU =      0.1102 (sec) ----------------
PotEng   =  3.2091541e+04 Temp     =  1.5491950e+05 Press    =  7.7120801e+02 
---------------- Step      200 ----- CPU =      0.1151 (sec) ----------------
PotEng   =  2.9338456e+04 Temp     =  1.5704867e+05 Press    =  2.4257304e+03 
---------------- Step      210 ----- CPU =      0.1199 (sec) ----------------
PotEng   =  2.9157272e+04 Temp     =  1.4164623e+05 Press    =  1.7129688e+02 
---------------- Step      220 ----- CPU =      0.1247 (sec) ----------------
PotEng   =  2.9596208e+04 Temp     =  1.4108642e+05 Press    = -6.2114309e+00 
---------------- Step      230 ----- CPU =      0.1296 (sec) ----------------
PotEng   =  2.9311125e+04 Temp     =  1.4970886e+05 Press    =  1.6031241e+03 
---------------- Step      240 ----- CPU =      0.1345 (sec) ----------------
PotEng   =  2.9440496e+04 Temp     =  1.6255464e+05 Press    =  3.3033783e+03 
---------------- Step      250 ----- CPU =      0.1394 (sec) ----------------
PotEng   =  3.0480390e+04 Temp     =  1.6522006e+05 Press    =  3.2141541e+03 
---------------- Step      260 ----- CPU =      0.1442 (sec) ----------------
PotEng   =  2.9899788e+04 Temp     =  1.4959184e+05 Press    =  9.0029914e+02 
---------------- Step      270 ----- CPU =      0.1491 (sec) ----------------
PotEng   =  3.0217591e+04 Temp     =  1.5938791e+05 Press    =  2.1336923e+03 
---------------- Step      280 ----- CPU =      0.1540 (sec) ----------------
PotEng   =  3.0667483e+04 Temp     =  1.4591308e+05 Press    =  7.2675337e+01 
---------------- Step      290 ----- CPU =      0.1589 (sec) ----------------
PotEng   =  3.0578618e+04 Temp     =  1.4336027e+05 Press    = -3.0573775e+02 
---------------- Step      300 ----- CPU =      0.1636 (sec) ----------------
PotEng   =  3.0997972e+04 Temp     =  1.5187284e+05 Press    =  1.2043154e+03 
---------------- Step      310 ----- CPU =      0.1684 (sec) ----------------
PotEng   =  2.9820675e+04 Temp     =  1.3957356e+05 Press    = -6.3500664e+02 
---------------- Step      320 ----- CPU =      0.1732 (sec) ----------------
PotEng   =  3.0885160e+04 Temp     =  1.5588735e+05 Press    =  1.2973132e+03 
---------------- Step      330 ----- CPU =      0.1781 (sec) ----------------
PotEng   =  3.1847796e+04 Temp     =  1.6714540e+05 Press    =  2.0893289e+03 
---------------- Step      340 ----- CPU =      0.1830 (sec) ----------------
PotEng   =  3.1309619e+04 Temp     =  1.4951109e+05 Press    =  1.8254165e+02 
---------------- Step      350 ----- CPU =      0.1879 (sec) ----------------
PotEng   =  3.2114064e+04 Temp     =  1.4204106e+05 Press    = -1.0718724e+03 
---------------- Step      360 ----- CPU =      0.1927 (sec) ----------------
PotEng   =  3.3523023e+04 Temp     =  1.4881792e+05 Press    = -9.5249935e+02 
---------------- Step      370 ----- CPU =      0.1976 (sec) ----------------
PotEng   =  3.3001471e+04 Temp     =  1.6465361e+05 Press    =  1.8047483e+03 
---------------- Step      380 ----- CPU =      0.2024 (sec) ----------------
PotEng   =  3.2173801e+04 Temp     =  1.4338344e+05 Press    = -1.0845966e+03 
---------------- Step      390 ----- CPU =      0.2072 (sec) ----------------
PotEng   =  3.2462182e+04 Temp     =  1.5932538e+05 Press    =  7.9098719e+02 
---------------- Step      400 ----- CPU =      0.2120 (sec) ----------------
PotEng   =  3.0039837e+04 Temp     =  1.5433163e+05 Press    =  1.9699492e+03 
---------------- Step      410 ----- CPU =      0.2168 (sec) ----------------
PotEng   =  2.9531309e+04 Temp     =  1.3934431e+05 Press    = -4.4129126e+02 
---------------- Step      420 ----- CPU =      0.2215 (sec) ----------------
PotEng   =  2.8507380e+04 Temp     =  1.6223374e+05 Press    =  3.4441385e+03 
---------------- Step      430 ----- CPU =      0.2262 (sec) ----------------
PotEng   =  2.8360291e+04 Temp     =  1.5070067e+05 Press    =  1.5823293e+03 
---------------- Step      440 ----- CPU =      0.2310 (sec) ----------------
PotEng   =  2.7201630e+04 Temp     =  1.5378207e+05 Press    =  3.0821171e+03 
---------------- Step      450 ----- CPU =      0.2357 (sec) ----------------
PotEng   =  2.6219542e+04 Temp     =  1.5630234e+05 Press    =  3.1740240e+03 
---------------- Step      460 ----- CPU =      0.2407 (sec) ----------------
PotEng   =  2.7850312e+04 Temp     =  1.5610214e+05 Press    =  2.7518914e+03 
---------------- Step      470 ----- CPU =      0.2454 (sec) ----------------
PotEng   =  2.7191887e+04 Temp     =  1.4759690e+05 Press    =  8.9777294e+02 
---------------- Step      480 ----- CPU =      0.2502 (sec) ----------------
PotEng   =  2.6050206e+04 Temp     =  1.6498530e+05 Press    =  3.4770768e+03 
---------------- Step      490 ----- CPU =      0.2551 (sec) ----------------
PotEng   =  2.8657353e+04 Temp     =  1.6168443e+05 Press    =  3.3562541e+03 
---------------- Step      500 ----- CPU =      0.2598 (sec) ----------------
PotEng   =  2.7712510e+04 Temp     =  1.4953593e+05 Press    =  2.9725237e+03 
---------------- Step      510 ----- CPU =      0.2646 (sec) ----------------
PotEng   =  2.6968419e+04 Temp     =  1.5153313e+05 Press    =  3.4562887e+03 
---------------- Step      520 ----- CPU =      0.2732 (sec) ----------------
PotEng   =  2.8615907e+04 Temp     =  1.4126973e+05 Press    =  1.9843671e+03 
---------------- Step      530 ----- CPU =      0.2781 (sec) ----------------
PotEng   =  2.8247640e+04 Temp     =  1.5222240e+05 Press    =  3.3693445e+03 
---------------- Step      540 ----- CPU =      0.2831 (sec) ----------------
PotEng   =  2.8825066e+04 Temp     =  1.4429753e+05 Press    =  1.6921111e+03 
---------------- Step      550 ----- CPU =      0.2879 (sec) ----------------
PotEng   =  3.0207475e+04 Temp     =  1.4197179e+05 Press    =  8.0563081e+02 
---------------- Step      560 ----- CPU =      0.2927 (sec) ----------------
PotEng   =  2.8234938e+04 Temp     =  1.4507494e+05 Press    =  3.0005098e+03 
---------------- Step      570 ----- CPU =      0.2974 (sec) ----------------
PotEng   =  2.7619411e+04 Temp     =  1.5164432e+05 Press    =  4.8991580e+03 
---------------- Step      580 ----- CPU =      0.3021 (sec) ----------------
PotEng   =  2.7475954e+04 Temp     =  1.7499225e+05 Press    =  8.3783539e+03 
---------------- Step      590 ----- CPU =      0.3070 (sec) ----------------
PotEng   =  2.7524588e+04 Temp     =  1.5452939e+05 Press    =  4.6181954e+03 
---------------- Step      600 ----- CPU =      0.3120 (sec) ----------------
PotEng   =  2.8489187e+04 Temp     =  1.4756968e+05 Press    =  2.5416299e+03 
---------------- Step      610 ----- CPU =      0.3169 (sec) ----------------
PotEng   =  2.8099589e+04 Temp     =  1.5187281e+05 Press    =  4.1543909e+03 
---------------- Step      620 ----- CPU =      0.3217 (sec) ----------------
PotEng   =  2.8664029e+04 Temp     =  1.5413118e+05 Press    =  3.5560356e+03 
---------------- Step      630 ----- CPU =      0.3266 (sec) ----------------
PotEng   =  2.8443858e+04 Temp     =  1.4975295e+05 Press    =  3.6613906e+03 
---------------- Step      640 ----- CPU =      0.3315 (sec) ----------------
PotEng   =  2.7358400e+04 Temp     =  1.5120080e+05 Press    =  3.7311470e+03 
---------------- Step      650 ----- CPU =      0.3363 (sec) ----------------
PotEng   =  2.8308352e+04 Temp     =  1.6130665e+05 Press    =  4.0588467e+03 
---------------- Step      660 ----- CPU =      0.3411 (sec) ----------------
PotEng   =  2.9413202e+04 Temp     =  1.6784127e+05 Press    =  4.7367056e+03 
---------------- Step      670 ----- CPU =      0.3459 (sec) ----------------
PotEng   =  2.9601314e+04 Temp     =  1.5424432e+05 Press    =  2.4178899e+03 
---------------- Step      680 ----- CPU =      0.3506 (sec) ----------------
PotEng   =  2.9745397e+04 Temp     =  1.4722184e+05 Press    =  1.2092728e+03 
---------------- Step      690 ----- CPU =      0.3553 (sec) ----------------
PotEng   =  2.8524561e+04 Temp     =  1.5238950e+05 Press    =  8.2037638e+02 
---------------- Step      700 ----- CPU =      0.3601 (sec) ----------------
PotEng   =  2.9351342e+04 Temp     =  1.4845611e+05 Press    = -7.8412292e+02 
---------------- Step      710 ----- CPU =      0.3648 (sec) ----------------
PotEng   =  3.0611528e+04 Temp     =  1.5712775e+05 Press    = -4.1602465e+02 
---------------- Step      720 ----- CPU =      0.3697 (sec) ----------------
PotEng   =  3.0988240e+04 Temp     =  1.4214699e+05 Press    = -3.2403134e+03 
---------------- Step      730 ----- CPU =      0.3745 (sec) ----------------
PotEng   =  3.1393251e+04 Temp     =  1.5986069e+05 Press    = -6.3396036e+02 
---------------- Step      740 ----- CPU =      0.3793 (sec) ----------------
PotEng   =  3.1249281e+04 Temp     =  1.4929943e+05 Press    = -2.3526850e+03 
---------------- Step      750 ----- CPU =      0.3840 (sec) ----------------
PotEng   =  3.1335416e+04 Temp     =  1.6110125e+05 Press    =  5.0093478e+02 
---------------- Step      760 ----- CPU =      0.3888 (sec) ----------------
PotEng   =  3.2345115e+04 Temp     =  1.3571717e+05 Press    = -4.3142174e+03 
---------------- Step      770 ----- CPU =      0.3935 (sec) ----------------
PotEng   =  3.2357394e+04 Temp     =  1.6680226e+05 Press    =  5.8861975e+02 
---------------- Step      780 ----- CPU =      0.3983 (sec) ----------------
PotEng   =  3.3280982e+04 Temp     =  1.5155405e+05 Press    = -1.8173667e+03 
---------------- Step      790 ----- CPU =      0.4032 (sec) ----------------
PotEng   =  3.3061154e+04 Temp     =  1.4477566e+05 Press    = -2.5046316e+03 
---------------- Step      800 ----- CPU =      0.4080 (sec) ----------------
PotEng   =  3.3078925e+04 Temp     =  1.4684180e+05 Press    = -1.7560021e+03 
---------------- Step      810 ----- CPU =      0.4127 (sec) ----------------
PotEng   =  3.1540720e+04 Temp     =  1.4395278e+05 Press    = -1.1267328e+03 
---------------- Step      820 ----- CPU =      0.4176 (sec) ----------------
PotEng   =  3.2558015e+04 Temp     =  1.5379087e+05 Press    = -3.0118325e+02 
---------------- Step      830 ----- CPU =      0.4225 (sec) ----------------
PotEng   =  3.2584110e+04 Temp     =  1.4809638e+05 Press    = -7.6730499e+02 
---------------- Step      840 ----- CPU =      0.4273 (sec) ----------------
PotEng   =  3.1984839e+04 Temp     =  1.5319415e+05 Press    =  7.4210289e+02 
---------------- Step      850 ----- CPU =      0.4320 (sec) ----------------
PotEng   =  3.1453841e+04 Temp     =  1.5639611e+05 Press    =  1.0184033e+03 
---------------- Step      860 ----- CPU =      0.4366 (sec) ----------------
PotEng   =  3.3141710e+04 Temp     =  1.5155273e+05 Press    = -9.6494361e+02 
---------------- Step      870 ----- CPU =      0.4413 (sec) ----------------
PotEng   =  3.3644001e+04 Temp     =  1.4377889e+05 Press    = -2.5166327e+03 
---------------- Step      880 ----- CPU =      0.4459 (sec) ----------------
PotEng   =  3.2753780e+04 Temp     =  1.4917631e+05 Press    = -1.1811746e+03 
---------------- Step      890 ----- CPU =      0.4506 (sec) ----------------
PotEng   =  3.2967037e+04 Temp     =  1.5101388e+05 Press    = -5.7483764e+02 
---------------- Step      900 ----- CPU =      0.4551 (sec) ----------------
PotEng   =  3.2758181e+04 Temp     =  1.5263044e+05 Press    =  2.7043707e+02 
---------------- Step      910 ----- CPU =      0.4597 (sec) ----------------
PotEng   =  3.1718324e+04 Temp     =  1.5053594e+05 Press    =  6.8992413e+02 
---------------- Step      920 ----- CPU =      0.4643 (sec) ----------------
PotEng   =  3.0933679e+04 Temp     =  1.4909770e+05 Press    =  5.8926290e+02 
---------------- Step      930 ----- CPU =      0.4690 (sec) ----------------
PotEng   =  3.0873408e+04 Temp     =  1.6033552e+05 Press    =  2.2196928e+03 
---------------- Step      940 ----- CPU =      0.4736 (sec) ----------------
PotEng   =  3.1789222e+04 Temp     =  1.5218699e+05 Press    =  3.5067941e+02 
---------------- Step      950 ----- CPU =      0.4785 (sec) ----------------
PotEng   =  3.1992805e+04 Temp     =  1.5512351e+05 Press    = -1.9265113e+00 
---------------- Step      960 ----- CPU =      0.4833 (sec) ----------------
PotEng   =  3.2647848e+04 Temp     =  1.4638841e+05 Press    = -1.6467256e+03 
---------------- Step      970 ----- CPU =      0.4881 (sec) ----------------
PotEng   =  3.0916765e+04 Temp     =  1.5006619e+05 Press    = -1.1839205e+02 
---------------- Step      980 ----- CPU =      0.4928 (sec) ----------------
PotEng   =  3.1870066e+04 Temp     =  1.5757366e+05 Press    =  1.1352805e+03 
---------------- Step      990 ----- CPU =      0.4976 (sec) ----------------
PotEng   =  3.0811648e+04 Temp     =  1.5747076e+05 Press    =  1.3638658e+03 
---------------- Step     1000 ----- CPU =      0.5025 (sec) ----------------
PotEng   =  2.8745182e+04 Temp     =  1.5443899e+05 Press    =  6.5952289e+02 
---------------- Step     1010 ----- CPU =      0.5075 (sec) ----------------
PotEng   =  2.9506995e+04 Temp     =  1.4501280e+05 Press    =  6.7141844e+02 
---------------- Step     1020 ----- CPU =      0.5122 (sec) ----------------
PotEng   =  3.0744189e+04 Temp     =  1.5910068e+05 Press    =  1.9292979e+03 
---------------- Step     1030 ----- CPU =      0.5169 (sec) ----------------
PotEng   =  3.0255017e+04 Temp     =  1.5017246e+05 Press    =  1.6414330e+03 
---------------- Step     1040 ----- CPU =      0.5215 (sec) ----------------
PotEng   =  3.1261557e+04 Temp     =  1.5099837e+05 Press    =  1.2667796e+03 
---------------- Step     1050 ----- CPU =      0.5297 (sec) ----------------
PotEng   =  3.1458045e+04 Temp     =  1.5292912e+05 Press    =  1.8935488e+03 
---------------- Step     1060 ----- CPU =      0.5345 (sec) ----------------
PotEng   =  2.9372444e+04 Temp     =  1.6681023e+05 Press    =  4.0509238e+03 
---------------- Step     1070 ----- CPU =      0.5395 (sec) ----------------
PotEng   =  2.9855734e+04 Temp     =  1.4772991e+05 Press    =  1.2981077e+03 
---------------- Step     1080 ----- CPU =      0.5444 (sec) ----------------
PotEng   =  3.0759844e+04 Temp     =  1.4216481e+05 Press    =  7.3516279e+02 
---------------- Step     1090 ----- CPU =      0.5493 (sec) ----------------
PotEng   =  3.1145729e+04 Temp     =  1.4906918e+05 Press    =  2.1889764e+03 
---------------- Step     1100 ----- CPU =      0.5542 (sec) ----------------
PotEng   =  3.1896473e+04 Temp     =  1.5450125e+05 Press    =  2.5601250e+03 
---------------- Step     1110 ----- CPU =      0.5591 (sec) ----------------
PotEng   =  3.2391090e+04 Temp     =  1.6123454e+05 Press    =  3.4347941e+03 
---------------- Step     1120 ----- CPU =      0.5640 (sec) ----------------
PotEng   =  3.2986932e+04 Temp     =  1.4325807e+05 Press    =  8.0652843e+02 
---------------- Step     1130 ----- CPU =      0.5689 (sec) ----------------
PotEng   =  3.3806749e+04 Temp     =  1.6831278e+05 Press    =  4.0910579e+03 
---------------- Step     1140 ----- CPU =      0.5740 (sec) ----------------
PotEng   =  3.2126467e+04 Temp     =  1.5414666e+05 Press    =  3.2377564e+03 
---------------- Step     1150 ----- CPU =      0.5788 (sec) ----------------
PotEng   =  3.1173971e+04 Temp     =  1.4769743e+05 Press    =  2.5216228e+03 
---------------- Step     1160 ----- CPU =      0.5837 (sec) ----------------
PotEng   =  3.1707301e+04 Temp     =  1.4704463e+05 Press    =  1.7959805e+03 
---------------- Step     1170 ----- CPU =      0.5885 (sec) ----------------
PotEng   =  3.1824814e+04 Temp     =  1.5123429e+05 Press    =  2.9758021e+03 
---------------- Step     1180 ----- CPU =      0.5933 (sec) ----------------
PotEng   =  3.0379719e+04 Temp     =  1.4498164e+05 Press    =  2.6658961e+03 
---------------- Step     1190 ----- CPU =      0.5980 (sec) ----------------
PotEng   =  3.1027453e+04 Temp     =  1.5179209e+05 Press    =  2.7371994e+03 
---------------- Step     1200 ----- CPU =      0.6028 (sec) ----------------
PotEng   =  3.0718817e+04 Temp     =  1.5075440e+05 Press    =  2.3011250e+03 
---------------- Step     1210 ----- CPU =      0.6076 (sec) ----------------
PotEng   =  3.1336728e+04 Temp     =  1.5943012e+05 Press    =  2.5942153e+03 
---------------- Step     1220 ----- CPU =      0.6124 (sec) ----------------
PotEng   =  3.0905931e+04 Temp     =  1.6162666e+05 Press    =  3.6900777e+03 
---------------- Step     1230 ----- CPU =      0.6171 (sec) ----------------
PotEng   =  3.0140579e+04 Temp     =  1.3685784e+05 Press    = -2.8774217e+02 
---------------- Step     1240 ----- CPU =      0.6219 (sec) ----------------
PotEng   =  3.0771061e+04 Temp     =  1.6750726e+05 Press    =  2.9297538e+03 
---------------- Step     1250 ----- CPU =      0.6268 (sec) ----------------
PotEng   =  3.1126939e+04 Temp     =  1.4797243e+05 Press    = -4.9782397e+02 
---------------- Step     1260 ----- CPU =      0.6317 (sec) ----------------
PotEng   =  3.1821946e+04 Temp     =  1.5174934e+05 Press    = -2.7781608e+02 
---------------- Step     1270 ----- CPU =      0.6365 (sec) ----------------
PotEng   =  3.3146566e+04 Temp     =  1.4826954e+05 Press    = -1.2827878e+03 
---------------- Step     1280 ----- CPU =      0.6415 (sec) ----------------
PotEng   =  3.3056918e+04 Temp     =  1.4453390e+05 Press    = -1.2605589e+03 
---------------- Step     1290 ----- CPU =      0.6464 (sec) ----------------
PotEng   =  3.1307212e+04 Temp     =  1.4408047e+05 Press    =  2.2244528e+02 
---------------- Step     1300 ----- CPU =      0.6513 (sec) ----------------
PotEng   =  3.0001870e+04 Temp     =  1.6305166e+05 Press    =  4.2365642e+03 
---------------- Step     1310 ----- CPU =      0.6561 (sec) ----------------
PotEng   =  2.8801545e+04 Temp     =  1.6041314e+05 Press    =  4.9435147e+03 
---------------- Step     1320 ----- CPU =      0.6610 (sec) ----------------
PotEng   =  2.7066920e+04 Temp     =  1.4941568e+05 Press    =  4.4140917e+03 
---------------- Step     1330 ----- CPU =      0.6659 (sec) ----------------
PotEng   =  2.8165271e+04 Temp     =  1.5489538e+05 Press    =  4.3995514e+03 
---------------- Step     1340 ----- CPU =      0.6709 (sec) ----------------
PotEng   =  2.8247695e+04 Temp     =  1.5797471e+05 Press    =  4.6113078e+03 
---------------- Step     1350 ----- CPU =      0.6758 (sec) ----------------
PotEng   =  2.8642044e+04 Temp     =  1.4916923e+05 Press    =  2.0567544e+03 
---------------- Step     1360 ----- CPU =      0.6807 (sec) ----------------
PotEng   =  2.8717941e+04 Temp     =  1.4495614e+05 Press    =  1.0858254e+03 
---------------- Step     1370 ----- CPU =      0.6856 (sec) ----------------
PotEng   =  2.8698946e+04 Temp     =  1.4706087e+05 Press    =  2.2959167e+03 
---------------- Step     1380 ----- CPU =      0.6904 (sec) ----------------
PotEng   =  2.9517528e+04 Temp     =  1.4528886e+05 Press    =  1.6296461e+03 
---------------- Step     1390 ----- CPU =      0.6952 (sec) ----------------
PotEng   =  3.0405491e+04 Temp     =  1.6204252e+05 Press    =  3.7063491e+03 
---------------- Step     1400 ----- CPU =      0.7002 (sec) ----------------
PotEng   =  2.9018024e+04 Temp     =  1.6683328e+05 Press    =  6.1279255e+03 
---------------- Step     1410 ----- CPU =      0.7051 (sec) ----------------
PotEng   =  2.9194321e+04 Temp     =  1.4106355e+05 Press    =  2.1708437e+03 
---------------- Step     1420 ----- CPU =      0.7102 (sec) ----------------
PotEng   =  2.8507280e+04 Temp     =  1.4776609e+05 Press    =  3.4347883e+03 
---------------- Step     1430 ----- CPU =      0.7150 (sec) ----------------
PotEng   =  2.7390721e+04 Temp     =  1.4518738e+05 Press    =  3.0103725e+03 
---------------- Step     1440 ----- CPU =      0.7199 (sec) ----------------
PotEng   =  2.8890479e+04 Temp     =  1.4021342e+05 Press    =  1.5410153e+03 
---------------- Step     1450 ----- CPU =      0.7248 (sec) ----------------
PotEng   =  2.8452675e+04 Temp     =  1.5995615e+05 Press    =  4.4625709e+03 
---------------- Step     1460 ----- CPU =      0.7297 (sec) ----------------
PotEng   =  2.5536062e+04 Temp     =  1.6164181e+05 Press    =  4.4767596e+03 
---------------- Step     1470 ----- CPU =      0.7347 (sec) ----------------
PotEng   =  3.0535666e+04 Temp     =  1.4588366e+05 Press    =  2.6957562e+03 
---------------- Step     1480 ----- CPU =      0.7397 (sec) ----------------
PotEng   =  2.9991333e+04 Temp     =  1.5727883e+05 Press    =  4.4733503e+03 
---------------- Step     1490 ----- CPU =      0.7446 (sec) ----------------
PotEng   =  3.0824638e+04 Temp     =  1.5673670e+05 Press    =  3.7820443e+03 
---------------- Step     1500 ----- CPU =      0.7495 (sec) ----------------
PotEng   =  3.0615698e+04 Temp     =  1.4176827e+05 Press    =  1.4347148e+03 
---------------- Step     1510 ----- CPU =      0.7544 (sec) ----------------
PotEng   =  3.1561621e+04 Temp     =  1.4321888e+05 Press    =  1.6887319e+03 
---------------- Step     1520 ----- CPU =      0.7593 (sec) ----------------
PotEng   =  2.9666859e+04 Temp     =  1.4870162e+05 Press    =  3.2361369e+03 
---------------- Step     1530 ----- CPU =      0.7643 (sec) ----------------
PotEng   =  2.8626227e+04 Temp     =  1.5499298e+05 Press    =  3.8977066e+03 
---------------- Step     1540 ----- CPU =      0.7692 (sec) ----------------
PotEng   =  2.5344833e+04 Temp     =  1.6627568e+05 Press    =  4.6977300e+03 
---------------- Step     1550 ----- CPU =      0.7746 (sec) ----------------
PotEng   =  2.9099639e+04 Temp     =  2.0124822e+05 Press    =  1.0462958e+04 
---------------- Step     1560 ----- CPU =      0.7795 (sec) ----------------
PotEng   =  2.9928735e+04 Temp     =  1.5774058e+05 Press    =  3.5728674e+03 
---------------- Step     1570 ----- CPU =      0.7844 (sec) ----------------
PotEng   =  3.0463941e+04 Temp     =  1.5083768e+05 Press    =  2.0661876e+03 
---------------- Step     1580 ----- CPU =      0.7922 (sec) ----------------
PotEng   =  3.0097649e+04 Temp     =  1.3872601e+05 Press    =  6.5689863e+02 
---------------- Step     1590 ----- CPU =      0.7973 (sec) ----------------
PotEng   =  2.9964256e+04 Temp     =  1.4159762e+05 Press    =  7.7416026e+02 
---------------- Step     1600 ----- CPU =      0.8023 (sec) ----------------
PotEng   =  2.9857698e+04 Temp     =  1.4847851e+05 Press    =  1.5279814e+03 
---------------- Step     1610 ----- CPU =      0.8072 (sec) ----------------
PotEng   =  3.1312081e+04 Temp     =  1.4707628e+05 Press    =  7.6409531e+02 
---------------- Step     1620 ----- CPU =      0.8121 (sec) ----------------
PotEng   =  3.1499762e+04 Temp     =  1.4520583e+05 Press    =  5.8704764e+02 
---------------- Step     1630 ----- CPU =      0.8172 (sec) ----------------
PotEng   =  3.0638764e+04 Temp     =  1.4507886e+05 Press    =  5.3866558e+02 
---------------- Step     1640 ----- CPU =      0.8221 (sec) ----------------
PotEng   =  3.1637392e+04 Temp     =  1.5521403e+05 Press    =  2.0256854e+03 
---------------- Step     1650 ----- CPU =      0.8270 (sec) ----------------
PotEng   =  3.2384353e+04 Temp     =  1.4909811e+05 Press    =  1.0298381e+03 
---------------- Step     1660 ----- CPU =      0.8320 (sec) ----------------
PotEng   =  3.2315468e+04 Temp     =  1.4701414e+05 Press    =  1.0567521e+03 
---------------- Step     1670 ----- CPU =      0.8370 (sec) ----------------
PotEng   =  3.2507871e+04 Temp     =  1.5301733e+05 Press    =  2.6800490e+03 
---------------- Step     1680 ----- CPU =      0.8419 (sec) ----------------
PotEng   =  3.2353144e+04 Temp     =  1.3930471e+05 Press    =  2.0184903e+02 
---------------- Step     1690 ----- CPU =      0.8468 (sec) ----------------
PotEng   =  3.1571337e+04 Temp     =  1.4295598e+05 Press    =  9.2790704e+02 
---------------- Step     1700 ----- CPU =      0.8517 (sec) ----------------
PotEng   =  3.2103646e+04 Temp     =  1.5944010e+05 Press    =  2.3406451e+03 
---------------- Step     1710 ----- CPU =      0.8566 (sec) ----------------
PotEng   =  3.2575791e+04 Temp     =  1.4762333e+05 Press    =  5.4160599e+02 
---------------- Step     1720 ----- CPU =      0.8616 (sec) ----------------
PotEng   =  3.1754419e+04 Temp     =  1.5084620e+05 Press    =  1.2515742e+03 
---------------- Step     1730 ----- CPU =      0.8666 (sec) ----------------
PotEng   =  3.1576679e+04 Temp     =  1.5786681e+05 Press    =  2.0607617e+03 
---------------- Step     1740 ----- CPU =      0.8715 (sec) ----------------
PotEng   =  2.8801533e+04 Temp     =  1.4657702e+05 Press    =  5.6965911e+02 
---------------- Step     1750 ----- CPU =      0.8764 (sec) ----------------
PotEng   =  2.9663066e+04 Temp     =  1.4150197e+05 Press    = -9.6075818e+02 
---------------- Step     1760 ----- CPU =      0.8815 (sec) ----------------
PotEng   =  3.0418828e+04 Temp     =  1.9379954e+05 Press    =  7.3014970e+03 
---------------- Step     1770 ----- CPU =      0.8865 (sec) ----------------
PotEng   =  3.2812620e+04 Temp     =  1.5608012e+05 Press    =  6.1763013e+02 
---------------- Step     1780 ----- CPU =      0.8914 (sec) ----------------
PotEng   =  3.1251386e+04 Temp     =  1.4545839e+05 Press    = -7.2848028e+02 
---------------- Step     1790 ----- CPU =      0.8964 (sec) ----------------
PotEng   =  3.2582371e+04 Temp     =  1.5741972e+05 Press    =  1.2538379e+03 
---------------- Step     1800 ----- CPU =      0.9014 (sec) ----------------
PotEng   =  3.2278521e+04 Temp     =  1.5151527e+05 Press    =  1.2574570e+03 
---------------- Step     1810 ----- CPU =      0.9063 (sec) ----------------
PotEng   =  3.1483183e+04 Temp     =  1.5904048e+05 Press    =  3.5135901e+03 
---------------- Step     1820 ----- CPU =      0.9114 (sec) ----------------
PotEng   =  3.1323728e+04 Temp     =  1.5539280e+05 Press    =  2.8378040e+03 
---------------- Step     1830 ----- CPU =      0.9163 (sec) ----------------
PotEng   =  3.2029211e+04 Temp     =  1.5828836e+05 Press    =  3.1199898e+03 
---------------- Step     1840 ----- CPU =      0.9213 (sec) ----------------
PotEng   =  3.3829466e+04 Temp     =  1.4945727e+05 Press    =  1.3954352e+03 
---------------- Step     1850 ----- CPU =      0.9263 (sec) ----------------
PotEng   =  3.3808202e+04 Temp     =  1.3970973e+05 Press    = -1.5324991e+02 
---------------- Step     1860 ----- CPU =      0.9312 (sec) ----------------
PotEng   =  3.3870567e+04 Temp     =  1.3338041e+05 Press    = -1.0276984e+03 
---------------- Step     1870 ----- CPU =      0.9361 (sec) ----------------
PotEng   =  3.3507887e+04 Temp     =  1.6328055e+05 Press    =  4.0158172e+03 
---------------- Step     1880 ----- CPU =      0.9411 (sec) ----------------
PotEng   =  3.3611050e+04 Temp     =  1.4956192e+05 Press    =  1.3593190e+03 
---------------- Step     1890 ----- CPU =      0.9460 (sec) ----------------
PotEng   =  3.2462637e+04 Temp     =  1.3779660e+05 Press    =  9.0795330e+01 
---------------- Step     1900 ----- CPU =      0.9509 (sec) ----------------
PotEng   =  3.0536642e+04 Temp     =  1.3833265e+05 Press    =  1.0421310e+03 
---------------- Step     1910 ----- CPU =      0.9561 (sec) ----------------
PotEng   =  2.9809791e+04 Temp     =  1.5168178e+05 Press    =  3.3325222e+03 
---------------- Step     1920 ----- CPU =      0.9610 (sec) ----------------
PotEng   =  2.8928698e+04 Temp     =  1.5571433e+05 Press    =  4.8216449e+03 
---------------- Step     1930 ----- CPU =      0.9660 (sec) ----------------
PotEng   =  2.7819817e+04 Temp     =  1.4551295e+05 Press    =  3.2656301e+03 
---------------- Step     1940 ----- CPU =      0.9710 (sec) ----------------
PotEng   =  3.0462308e+04 Temp     =  1.4912834e+05 Press    =  3.3814535e+03 
---------------- Step     1950 ----- CPU =      0.9759 (sec) ----------------
PotEng   =  2.9039743e+04 Temp     =  1.6692388e+05 Press    =  7.7411459e+03 
---------------- Step     1960 ----- CPU =      0.9808 (sec) ----------------
PotEng   =  2.9578367e+04 Temp     =  1.5439809e+05 Press    =  5.9449900e+03 
---------------- Step     1970 ----- CPU =      0.9860 (sec) ----------------
PotEng   =  2.8623157e+04 Temp     =  1.4124934e+05 Press    =  4.4756056e+03 
---------------- Step     1980 ----- CPU =      0.9909 (sec) ----------------
PotEng   =  2.9134907e+04 Temp     =  1.4942271e+05 Press    =  5.8253361e+03 
---------------- Step     1990 ----- CPU =      0.9958 (sec) ----------------
PotEng   =  2.7668994e+04 Temp     =  1.4453709e+05 Press    =  6.1143247e+03 
---------------- Step     2000 ----- CPU =      1.0009 (sec) ----------------
PotEng   =  2.8583335e+04 Temp     =  1.5106313e+05 Press    =  6.8537154e+03 
Loop time of 1.00092 on 5 procs for 2000 steps with 180 atoms

Performance: 8.421 ns/day, 2.850 hours/ns, 1998.171 timesteps/s
495.6% CPU use with 1 MPI tasks x 5 OpenMP threads

MPI task timing breakdown:
Section |  min time  |  avg time  |  max time  |%varavg| %total
---------------------------------------------------------------
Pair    | 0.49181    | 0.49181    | 0.49181    |   0.0 | 49.14
Bond    | 0.0043722  | 0.0043722  | 0.0043722  |   0.0 |  0.44
Kspace  | 0.35778    | 0.35778    | 0.35778    |   0.0 | 35.75
Neigh   | 0.0033143  | 0.0033143  | 0.0033143  |   0.0 |  0.33
Comm    | 0.0078201  | 0.0078201  | 0.0078201  |   0.0 |  0.78
Output  | 0.068445   | 0.068445   | 0.068445   |   0.0 |  6.84
Modify  | 0.066175   | 0.066175   | 0.066175   |   0.0 |  6.61
Other   |            | 0.001203   |            |       |  0.12

Nlocal:    180 ave 180 max 180 min
Histogram: 1 0 0 0 0 0 0 0 0 0
Nghost:    1056 ave 1056 max 1056 min
Histogram: 1 0 0 0 0 0 0 0 0 0
Neighs:    6821 ave 6821 max 6821 min
Histogram: 1 0 0 0 0 0 0 0 0 0

Total # of neighbors = 6821
Ave neighs/atom = 37.8944
Ave special neighs/atom = 3.5
Neighbor list builds = 35
Dangerous builds = 1
Total wall time: 0:00:02
