LAMMPS (22 Aug 2018)
OMP_NUM_THREADS environment is not set. Defaulting to 1 thread. (../comm.cpp:87)
  using 1 OpenMP thread(s) per MPI task
# LAMMPS INPUT FILE GENERATED BY SIM SUITE
clear
OMP_NUM_THREADS environment is not set. Defaulting to 1 thread. (../comm.cpp:87)
  using 1 OpenMP thread(s) per MPI task

# Initialize simulation box
package omp     5
set 5 OpenMP thread(s) per MPI task
using multi-threaded neighbor list subroutines
dimension       3
boundary        p p p
units           real
atom_style      full

# Set potential styles
pair_style      hybrid/overlay table2 spline 1000 coul/long  2.25000e+01
kspace_style    pppm 1.e-4
bond_style      harmonic

# Read molecule data and set initial velocities
read_data       /home/mnguyen/bin/PECG/test_PAAf0.5_implicitSol_NVT/tmpGE1w6N1.lammps.data
  orthogonal box = (-27 -27 -27) to (27 27 27)
  1 by 1 by 1 MPI processor grid
  reading atoms ...
  180 atoms
  scanning bonds ...
  2 = max bonds/atom
  reading bonds ...
  165 bonds
  2 = max # of 1-2 neighbors
  2 = max # of 1-3 neighbors
  4 = max # of 1-4 neighbors
  6 = max # of special neighbors
velocity        all create  1.5014e+05 96155 rot yes dist gaussian

# Assign potentials
pair_coeff      *     *     coul/long
pair_coeff          1     1 table2 /home/mnguyen/bin/PECG/test_PAAf0.5_implicitSol_NVT/tmpGE1w6N1.lammps.pair PairPotential4[0]11[0]
WARNING: 7 of 1000 force values in table are inconsistent with -dE/dr.
  Should only be flagged at inflection points (../pair_table2.cpp:484)
WARNING: 491 of 1000 distance values in table with relative error
  over 1e-06 to re-computed values (../pair_table2.cpp:493)
pair_coeff          1     2 table2 /home/mnguyen/bin/PECG/test_PAAf0.5_implicitSol_NVT/tmpGE1w6N1.lammps.pair PairPotential2[0]9[1]
WARNING: 41 of 1000 force values in table are inconsistent with -dE/dr.
  Should only be flagged at inflection points (../pair_table2.cpp:484)
WARNING: 491 of 1000 distance values in table with relative error
  over 1e-06 to re-computed values (../pair_table2.cpp:493)
pair_coeff          2     2 table2 /home/mnguyen/bin/PECG/test_PAAf0.5_implicitSol_NVT/tmpGE1w6N1.lammps.pair PairPotential1[0]8[2]
WARNING: 41 of 1000 force values in table are inconsistent with -dE/dr.
  Should only be flagged at inflection points (../pair_table2.cpp:484)
WARNING: 491 of 1000 distance values in table with relative error
  over 1e-06 to re-computed values (../pair_table2.cpp:493)
bond_coeff          1  2.9624e+02  3.5000e+00

special_bonds     lj 1.0 1.0 1.0 coul 0.0 0.0 1.0
  2 = max # of 1-2 neighbors
  2 = max # of 1-3 neighbors
  6 = max # of special neighbors

variable UExtSin equal 0.592474963246
variable offsetExtSin equal 0.0
variable nperiodExtSin equal 1.0
variable factorExtSin equal 2.0*PI*${nperiodExtSin}/lz
variable factorExtSin equal 2.0*PI*1/lz
variable sineExtSin atom ${UExtSin}*sin(${factorExtSin}*(x-${offsetExtSin}))
variable sineExtSin atom 0.592474963246*sin(${factorExtSin}*(x-${offsetExtSin}))
variable sineExtSin atom 0.592474963246*sin(0.116355283466289*(x-${offsetExtSin}))
variable sineExtSin atom 0.592474963246*sin(0.116355283466289*(x-0))
variable cosineExtSin atom ${UExtSin}*${factorExtSin}*cos(${factorExtSin}*(x-${offsetExtSin}))
variable cosineExtSin atom 0.592474963246*${factorExtSin}*cos(${factorExtSin}*(x-${offsetExtSin}))
variable cosineExtSin atom 0.592474963246*0.116355283466289*cos(${factorExtSin}*(x-${offsetExtSin}))
variable cosineExtSin atom 0.592474963246*0.116355283466289*cos(0.116355283466289*(x-${offsetExtSin}))
variable cosineExtSin atom 0.592474963246*0.116355283466289*cos(0.116355283466289*(x-0))

group atomsInFieldExtSin type 2 4 6 8 10 12
90 atoms in group atomsInFieldExtSin
fix UextExtSin atomsInFieldExtSin addforce 0.0 0.0 v_cosineExtSin energy v_sineExtSin
fix_modify UextExtSin energy yes




#Thermostat & time integration
timestep        4.8780e-02
thermo          10
thermo_style    custom pe temp press
thermo_modify   line multi norm no format float %14.7e

#minimization
minimize        1.e-4 0.0 100 100
WARNING: Using 'neigh_modify every 1 delay 0 check yes' setting during minimization (../min.cpp:168)
PPPM initialization ...
WARNING: System is not charge neutral, net charge = -90 (../kspace.cpp:302)
  using 12-bit tables for long-range coulomb (../kspace.cpp:321)
  G vector (1/distance) = 0.0997632
  grid = 8 8 8
  stencil order = 5
  estimated absolute RMS force accuracy = 0.0217008
  estimated relative force accuracy = 6.53515e-05
  using double precision FFTs
  3d grid and FFT values/proc = 2197 512
No /omp style for force computation currently active
Neighbor list info ...
  update every 1 steps, delay 0 steps, check yes
  max neighbors/atom: 2000, page size: 100000
  master list distance cutoff = 24.5
  ghost atom cutoff = 24.5
  binsize = 12.25, bins = 5 5 5
  2 neighbor lists, perpetual/occasional/extra = 2 0 0
  (1) pair table2, perpetual
      attributes: half, newton on, omp
      pair build: half/bin/newton/omp
      stencil: half/bin/3d/newton
      bin: standard
  (2) pair coul/long, perpetual, copy from (1)
      attributes: half, newton on, omp
      pair build: copy
      stencil: none
      bin: none
WARNING: Inconsistent image flags (../domain.cpp:782)
Per MPI rank memory allocation (min/avg/max) = 13.84 | 13.84 | 13.84 Mbytes
---------------- Step        0 ----- CPU =      0.0000 (sec) ----------------
PotEng   =  9.1707709e+03 Temp     =  1.5014000e+05 Press    =  3.1464870e+04 
---------------- Step       10 ----- CPU =      0.0137 (sec) ----------------
PotEng   =  3.4254951e+03 Temp     =  1.5014000e+05 Press    =  2.5109817e+04 
---------------- Step       20 ----- CPU =      0.0228 (sec) ----------------
PotEng   =  2.4407390e+03 Temp     =  1.5014000e+05 Press    =  2.5048082e+04 
---------------- Step       30 ----- CPU =      0.0299 (sec) ----------------
PotEng   =  1.5156422e+03 Temp     =  1.5014000e+05 Press    =  2.4672104e+04 
---------------- Step       39 ----- CPU =      0.0766 (sec) ----------------
PotEng   = -2.7473208e+04 Temp     =  1.5014000e+05 Press    =  2.4567757e+04 
Loop time of 0.0766305 on 5 procs for 39 steps with 180 atoms

498.8% CPU use with 1 MPI tasks x 5 OpenMP threads

Minimization stats:
  Stopping criterion = max force evaluations
  Energy initial, next-to-last, final = 
         9170.77085287     -27471.8335562      -27473.208199
  Force two-norm initial, final = 3218.06 2.17234e+06
  Force max component initial, final = 475.934 1.441e+06
  Final line search alpha, max atom move = 1.11686e-12 1.60939e-06
  Iterations, force evaluations = 39 113

MPI task timing breakdown:
Section |  min time  |  avg time  |  max time  |%varavg| %total
---------------------------------------------------------------
Pair    | 0.047382   | 0.047382   | 0.047382   |   0.0 | 61.83
Bond    | 0.00035026 | 0.00035026 | 0.00035026 |   0.0 |  0.46
Kspace  | 0.024692   | 0.024692   | 0.024692   |   0.0 | 32.22
Neigh   | 0.00041932 | 0.00041932 | 0.00041932 |   0.0 |  0.55
Comm    | 0.00055238 | 0.00055238 | 0.00055238 |   0.0 |  0.72
Output  | 2.4335e-05 | 2.4335e-05 | 2.4335e-05 |   0.0 |  0.03
Modify  | 0.0027485  | 0.0027485  | 0.0027485  |   0.0 |  3.59
Other   |            | 0.0004623  |            |       |  0.60

Nlocal:    180 ave 180 max 180 min
Histogram: 1 0 0 0 0 0 0 0 0 0
Nghost:    1051 ave 1051 max 1051 min
Histogram: 1 0 0 0 0 0 0 0 0 0
Neighs:    6771 ave 6771 max 6771 min
Histogram: 1 0 0 0 0 0 0 0 0 0

Total # of neighbors = 6771
Ave neighs/atom = 37.6167
Ave special neighs/atom = 3.5
Neighbor list builds = 3
Dangerous builds = 0

#set up integration parameters
fix             timeintegration all nve
fix             thermostat all langevin  1.5014e+05  1.5014e+05  1.0000e-01 59181


#restart thermo
reset_timestep  0
thermo          10
thermo_style    custom pe temp press
WARNING: New thermo_style command, previous thermo_modify settings will be lost (../output.cpp:705)
thermo_modify   line multi norm no format float %14.7e
variable PRESS equal press
variable STEP equal step

#run equilibration
run             2000
PPPM initialization ...
  using 12-bit tables for long-range coulomb (../kspace.cpp:321)
  G vector (1/distance) = 0.0997632
  grid = 8 8 8
  stencil order = 5
  estimated absolute RMS force accuracy = 0.0217008
  estimated relative force accuracy = 6.53515e-05
  using double precision FFTs
  3d grid and FFT values/proc = 2197 512
No /omp style for force computation currently active
WARNING: Inconsistent image flags (../domain.cpp:782)
Per MPI rank memory allocation (min/avg/max) = 12.71 | 12.71 | 12.71 Mbytes
---------------- Step        0 ----- CPU =      0.0000 (sec) ----------------
PotEng   = -2.7473208e+04 Temp     =  1.5014000e+05 Press    =  2.4567757e+04 
---------------- Step       10 ----- CPU =      0.0134 (sec) ----------------
PotEng   =  3.8555918e+03 Temp     =  1.6215321e+05 Press    =  2.5661191e+04 
---------------- Step       20 ----- CPU =      0.0220 (sec) ----------------
PotEng   =  4.2799715e+03 Temp     =  1.5251719e+05 Press    =  2.4036807e+04 
---------------- Step       30 ----- CPU =      0.0287 (sec) ----------------
PotEng   =  5.6312364e+03 Temp     =  1.4311667e+05 Press    =  2.2044523e+04 
---------------- Step       40 ----- CPU =      0.0337 (sec) ----------------
PotEng   =  6.6581201e+03 Temp     =  1.4853237e+05 Press    =  2.1925907e+04 
---------------- Step       50 ----- CPU =      0.0385 (sec) ----------------
PotEng   =  6.9859763e+03 Temp     =  1.4922654e+05 Press    =  2.1772494e+04 
---------------- Step       60 ----- CPU =      0.0431 (sec) ----------------
PotEng   =  7.8090547e+03 Temp     =  1.5879218e+05 Press    =  2.3866732e+04 
---------------- Step       70 ----- CPU =      0.0478 (sec) ----------------
PotEng   =  9.2566765e+03 Temp     =  1.3486256e+05 Press    =  1.9707871e+04 
---------------- Step       80 ----- CPU =      0.0524 (sec) ----------------
PotEng   =  1.0236691e+04 Temp     =  1.4302306e+05 Press    =  2.0311140e+04 
---------------- Step       90 ----- CPU =      0.0569 (sec) ----------------
PotEng   =  1.1386964e+04 Temp     =  1.5897581e+05 Press    =  2.3145457e+04 
---------------- Step      100 ----- CPU =      0.0615 (sec) ----------------
PotEng   =  1.0955645e+04 Temp     =  1.6247600e+05 Press    =  2.3209325e+04 
---------------- Step      110 ----- CPU =      0.0661 (sec) ----------------
PotEng   =  1.3621951e+04 Temp     =  1.5431568e+05 Press    =  2.1211826e+04 
---------------- Step      120 ----- CPU =      0.0707 (sec) ----------------
PotEng   =  1.4187108e+04 Temp     =  1.4204491e+05 Press    =  1.9131451e+04 
---------------- Step      130 ----- CPU =      0.0752 (sec) ----------------
PotEng   =  1.4846090e+04 Temp     =  1.4716838e+05 Press    =  1.9320523e+04 
---------------- Step      140 ----- CPU =      0.0798 (sec) ----------------
PotEng   =  1.5155137e+04 Temp     =  1.5349932e+05 Press    =  1.9659179e+04 
---------------- Step      150 ----- CPU =      0.0843 (sec) ----------------
PotEng   =  1.5490802e+04 Temp     =  1.6117185e+05 Press    =  2.1291306e+04 
---------------- Step      160 ----- CPU =      0.0889 (sec) ----------------
PotEng   =  1.6562335e+04 Temp     =  1.4849122e+05 Press    =  1.8235726e+04 
---------------- Step      170 ----- CPU =      0.0936 (sec) ----------------
PotEng   =  1.6114311e+04 Temp     =  1.5746965e+05 Press    =  1.9564430e+04 
---------------- Step      180 ----- CPU =      0.0982 (sec) ----------------
PotEng   =  1.6512887e+04 Temp     =  1.5368534e+05 Press    =  1.7723032e+04 
---------------- Step      190 ----- CPU =      0.1028 (sec) ----------------
PotEng   =  1.8656320e+04 Temp     =  1.5404295e+05 Press    =  1.6183059e+04 
---------------- Step      200 ----- CPU =      0.1074 (sec) ----------------
PotEng   =  1.8529562e+04 Temp     =  1.5052885e+05 Press    =  1.5183788e+04 
---------------- Step      210 ----- CPU =      0.1120 (sec) ----------------
PotEng   =  1.8504211e+04 Temp     =  1.5058785e+05 Press    =  1.5170619e+04 
---------------- Step      220 ----- CPU =      0.1166 (sec) ----------------
PotEng   =  1.8028373e+04 Temp     =  1.5277605e+05 Press    =  1.5698897e+04 
---------------- Step      230 ----- CPU =      0.1213 (sec) ----------------
PotEng   =  1.9213465e+04 Temp     =  1.7361296e+05 Press    =  1.8055437e+04 
---------------- Step      240 ----- CPU =      0.1260 (sec) ----------------
PotEng   =  1.9504182e+04 Temp     =  1.5949774e+05 Press    =  1.5350310e+04 
---------------- Step      250 ----- CPU =      0.1305 (sec) ----------------
PotEng   =  2.0378258e+04 Temp     =  1.4348448e+05 Press    =  1.2013215e+04 
---------------- Step      260 ----- CPU =      0.1351 (sec) ----------------
PotEng   =  2.0603539e+04 Temp     =  1.5189704e+05 Press    =  1.3151273e+04 
---------------- Step      270 ----- CPU =      0.1396 (sec) ----------------
PotEng   =  2.0470107e+04 Temp     =  1.6576681e+05 Press    =  1.5692244e+04 
---------------- Step      280 ----- CPU =      0.1442 (sec) ----------------
PotEng   =  2.1920982e+04 Temp     =  1.6517443e+05 Press    =  1.5000023e+04 
---------------- Step      290 ----- CPU =      0.1488 (sec) ----------------
PotEng   =  2.2627906e+04 Temp     =  1.6124091e+05 Press    =  1.3695195e+04 
---------------- Step      300 ----- CPU =      0.1534 (sec) ----------------
PotEng   =  2.2827828e+04 Temp     =  1.5274994e+05 Press    =  1.2550231e+04 
---------------- Step      310 ----- CPU =      0.1581 (sec) ----------------
PotEng   =  2.2865892e+04 Temp     =  1.6866791e+05 Press    =  1.4622143e+04 
---------------- Step      320 ----- CPU =      0.1626 (sec) ----------------
PotEng   =  2.2132455e+04 Temp     =  1.4590688e+05 Press    =  1.1118653e+04 
---------------- Step      330 ----- CPU =      0.1672 (sec) ----------------
PotEng   =  2.0708647e+04 Temp     =  1.5373068e+05 Press    =  1.3227842e+04 
---------------- Step      340 ----- CPU =      0.1718 (sec) ----------------
PotEng   =  2.1249634e+04 Temp     =  1.4952093e+05 Press    =  1.1282465e+04 
---------------- Step      350 ----- CPU =      0.1766 (sec) ----------------
PotEng   =  2.1713385e+04 Temp     =  1.4249737e+05 Press    =  9.5121319e+03 
---------------- Step      360 ----- CPU =      0.1811 (sec) ----------------
PotEng   =  2.2395890e+04 Temp     =  1.5004317e+05 Press    =  9.2451355e+03 
---------------- Step      370 ----- CPU =      0.1857 (sec) ----------------
PotEng   =  2.1712307e+04 Temp     =  1.6339578e+05 Press    =  1.1728283e+04 
---------------- Step      380 ----- CPU =      0.1903 (sec) ----------------
PotEng   =  2.2472888e+04 Temp     =  1.6637579e+05 Press    =  1.1127543e+04 
---------------- Step      390 ----- CPU =      0.1948 (sec) ----------------
PotEng   =  2.4063798e+04 Temp     =  1.5149471e+05 Press    =  9.1546810e+03 
---------------- Step      400 ----- CPU =      0.1994 (sec) ----------------
PotEng   =  2.3519027e+04 Temp     =  1.4130739e+05 Press    =  7.9437707e+03 
---------------- Step      410 ----- CPU =      0.2041 (sec) ----------------
PotEng   =  2.3539884e+04 Temp     =  1.5547867e+05 Press    =  1.0023625e+04 
---------------- Step      420 ----- CPU =      0.2087 (sec) ----------------
PotEng   =  2.3210271e+04 Temp     =  1.5852328e+05 Press    =  1.0839980e+04 
---------------- Step      430 ----- CPU =      0.2133 (sec) ----------------
PotEng   =  2.3008705e+04 Temp     =  1.4977130e+05 Press    =  9.1396806e+03 
---------------- Step      440 ----- CPU =      0.2178 (sec) ----------------
PotEng   =  2.3384377e+04 Temp     =  1.5428658e+05 Press    =  9.4864370e+03 
---------------- Step      450 ----- CPU =      0.2224 (sec) ----------------
PotEng   =  2.3895979e+04 Temp     =  1.4318857e+05 Press    =  6.6343346e+03 
---------------- Step      460 ----- CPU =      0.2270 (sec) ----------------
PotEng   =  2.3717823e+04 Temp     =  1.4505030e+05 Press    =  7.1199979e+03 
---------------- Step      470 ----- CPU =      0.2317 (sec) ----------------
PotEng   =  2.2208978e+04 Temp     =  1.5850357e+05 Press    =  1.0152780e+04 
---------------- Step      480 ----- CPU =      0.2361 (sec) ----------------
PotEng   =  2.1148861e+04 Temp     =  1.5220663e+05 Press    =  1.0083457e+04 
---------------- Step      490 ----- CPU =      0.2407 (sec) ----------------
PotEng   =  2.2299040e+04 Temp     =  1.4471059e+05 Press    =  8.3807421e+03 
---------------- Step      500 ----- CPU =      0.2453 (sec) ----------------
PotEng   =  2.3361316e+04 Temp     =  1.4888429e+05 Press    =  8.5277933e+03 
---------------- Step      510 ----- CPU =      0.2499 (sec) ----------------
PotEng   =  2.2630598e+04 Temp     =  1.3632792e+05 Press    =  7.6688632e+03 
---------------- Step      520 ----- CPU =      0.2545 (sec) ----------------
PotEng   =  2.1817799e+04 Temp     =  1.3634783e+05 Press    =  8.7893612e+03 
---------------- Step      530 ----- CPU =      0.2590 (sec) ----------------
PotEng   =  2.1808647e+04 Temp     =  1.4114320e+05 Press    =  9.4490115e+03 
---------------- Step      540 ----- CPU =      0.2638 (sec) ----------------
PotEng   =  2.2843602e+04 Temp     =  1.5679304e+05 Press    =  1.1025309e+04 
---------------- Step      550 ----- CPU =      0.2683 (sec) ----------------
PotEng   =  2.4532478e+04 Temp     =  1.5522825e+05 Press    =  1.0370782e+04 
---------------- Step      560 ----- CPU =      0.2729 (sec) ----------------
PotEng   =  2.6143577e+04 Temp     =  1.5954179e+05 Press    =  1.0342646e+04 
---------------- Step      570 ----- CPU =      0.2777 (sec) ----------------
PotEng   =  2.6688791e+04 Temp     =  1.3592253e+05 Press    =  6.6088305e+03 
---------------- Step      580 ----- CPU =      0.2822 (sec) ----------------
PotEng   =  2.6090229e+04 Temp     =  1.4964860e+05 Press    =  9.2375420e+03 
---------------- Step      590 ----- CPU =      0.2868 (sec) ----------------
PotEng   =  2.6494693e+04 Temp     =  1.4443392e+05 Press    =  8.3595158e+03 
---------------- Step      600 ----- CPU =      0.2914 (sec) ----------------
PotEng   =  2.6627652e+04 Temp     =  1.5191764e+05 Press    =  8.9988350e+03 
---------------- Step      610 ----- CPU =      0.2958 (sec) ----------------
PotEng   =  2.6605860e+04 Temp     =  1.3803066e+05 Press    =  7.0878442e+03 
---------------- Step      620 ----- CPU =      0.3004 (sec) ----------------
PotEng   =  2.6108279e+04 Temp     =  1.4619434e+05 Press    =  8.8424462e+03 
---------------- Step      630 ----- CPU =      0.3050 (sec) ----------------
PotEng   =  2.5895263e+04 Temp     =  1.4004303e+05 Press    =  8.3542711e+03 
---------------- Step      640 ----- CPU =      0.3097 (sec) ----------------
PotEng   =  2.5112822e+04 Temp     =  1.4540872e+05 Press    =  9.5420107e+03 
---------------- Step      650 ----- CPU =      0.3143 (sec) ----------------
PotEng   =  2.5818746e+04 Temp     =  1.5717925e+05 Press    =  1.0988433e+04 
---------------- Step      660 ----- CPU =      0.3188 (sec) ----------------
PotEng   =  2.5287945e+04 Temp     =  1.4730181e+05 Press    =  9.9300466e+03 
---------------- Step      670 ----- CPU =      0.3233 (sec) ----------------
PotEng   =  2.6714143e+04 Temp     =  1.5446100e+05 Press    =  1.0099562e+04 
---------------- Step      680 ----- CPU =      0.3278 (sec) ----------------
PotEng   =  2.8514813e+04 Temp     =  1.2679502e+05 Press    =  5.7590807e+03 
---------------- Step      690 ----- CPU =      0.3323 (sec) ----------------
PotEng   =  2.8615035e+04 Temp     =  1.6277943e+05 Press    =  1.0865312e+04 
---------------- Step      700 ----- CPU =      0.3367 (sec) ----------------
PotEng   =  2.8251423e+04 Temp     =  1.6731465e+05 Press    =  1.1772326e+04 
---------------- Step      710 ----- CPU =      0.3414 (sec) ----------------
PotEng   =  2.8993215e+04 Temp     =  1.5861505e+05 Press    =  9.8198187e+03 
---------------- Step      720 ----- CPU =      0.3459 (sec) ----------------
PotEng   =  3.0642412e+04 Temp     =  1.4238529e+05 Press    =  6.4814885e+03 
---------------- Step      730 ----- CPU =      0.3504 (sec) ----------------
PotEng   =  3.0398084e+04 Temp     =  1.4101408e+05 Press    =  5.8387040e+03 
---------------- Step      740 ----- CPU =      0.3548 (sec) ----------------
PotEng   =  3.1379976e+04 Temp     =  1.6194706e+05 Press    =  8.9282590e+03 
---------------- Step      750 ----- CPU =      0.3593 (sec) ----------------
PotEng   =  3.0742974e+04 Temp     =  1.5088779e+05 Press    =  6.8447669e+03 
---------------- Step      760 ----- CPU =      0.3638 (sec) ----------------
PotEng   =  3.0720536e+04 Temp     =  1.4297813e+05 Press    =  4.7752399e+03 
---------------- Step      770 ----- CPU =      0.3684 (sec) ----------------
PotEng   =  3.1393095e+04 Temp     =  1.4181114e+05 Press    =  4.9600031e+03 
---------------- Step      780 ----- CPU =      0.3729 (sec) ----------------
PotEng   =  3.1162317e+04 Temp     =  1.5531496e+05 Press    =  7.0816613e+03 
---------------- Step      790 ----- CPU =      0.3775 (sec) ----------------
PotEng   =  2.9465224e+04 Temp     =  1.4734209e+05 Press    =  6.0038607e+03 
---------------- Step      800 ----- CPU =      0.3821 (sec) ----------------
PotEng   =  2.9213070e+04 Temp     =  1.5021541e+05 Press    =  6.3182601e+03 
---------------- Step      810 ----- CPU =      0.3867 (sec) ----------------
PotEng   =  2.9575425e+04 Temp     =  1.5583935e+05 Press    =  6.1839215e+03 
---------------- Step      820 ----- CPU =      0.3912 (sec) ----------------
PotEng   =  2.8858823e+04 Temp     =  1.5093781e+05 Press    =  5.3778722e+03 
---------------- Step      830 ----- CPU =      0.3958 (sec) ----------------
PotEng   =  2.9124740e+04 Temp     =  1.4764179e+05 Press    =  5.5145104e+03 
---------------- Step      840 ----- CPU =      0.4006 (sec) ----------------
PotEng   =  3.0357310e+04 Temp     =  1.5509329e+05 Press    =  6.9925773e+03 
---------------- Step      850 ----- CPU =      0.4050 (sec) ----------------
PotEng   =  3.0226171e+04 Temp     =  1.5216290e+05 Press    =  6.2566097e+03 
---------------- Step      860 ----- CPU =      0.4095 (sec) ----------------
PotEng   =  3.0582641e+04 Temp     =  1.5629112e+05 Press    =  6.0964014e+03 
---------------- Step      870 ----- CPU =      0.4139 (sec) ----------------
PotEng   =  3.0314918e+04 Temp     =  1.4433510e+05 Press    =  4.1611513e+03 
---------------- Step      880 ----- CPU =      0.4184 (sec) ----------------
PotEng   =  2.9806101e+04 Temp     =  1.5869015e+05 Press    =  6.8617043e+03 
---------------- Step      890 ----- CPU =      0.4229 (sec) ----------------
PotEng   =  3.0499844e+04 Temp     =  1.5757489e+05 Press    =  5.8284650e+03 
---------------- Step      900 ----- CPU =      0.4275 (sec) ----------------
PotEng   =  3.0243813e+04 Temp     =  1.4902660e+05 Press    =  4.9885303e+03 
---------------- Step      910 ----- CPU =      0.4321 (sec) ----------------
PotEng   =  2.9151079e+04 Temp     =  1.4371188e+05 Press    =  5.7901575e+03 
---------------- Step      920 ----- CPU =      0.4366 (sec) ----------------
PotEng   =  2.8677189e+04 Temp     =  1.3790946e+05 Press    =  5.1433453e+03 
---------------- Step      930 ----- CPU =      0.4413 (sec) ----------------
PotEng   =  2.9843584e+04 Temp     =  1.4633399e+05 Press    =  5.6692513e+03 
---------------- Step      940 ----- CPU =      0.4458 (sec) ----------------
PotEng   =  3.0884544e+04 Temp     =  1.5406112e+05 Press    =  5.7697606e+03 
---------------- Step      950 ----- CPU =      0.4504 (sec) ----------------
PotEng   =  3.1413005e+04 Temp     =  1.5513700e+05 Press    =  5.5591250e+03 
---------------- Step      960 ----- CPU =      0.4550 (sec) ----------------
PotEng   =  3.1890214e+04 Temp     =  1.5695405e+05 Press    =  6.0093668e+03 
---------------- Step      970 ----- CPU =      0.4594 (sec) ----------------
PotEng   =  3.1402426e+04 Temp     =  1.5466391e+05 Press    =  6.1262333e+03 
---------------- Step      980 ----- CPU =      0.4640 (sec) ----------------
PotEng   =  3.1510231e+04 Temp     =  1.5575039e+05 Press    =  5.3645101e+03 
---------------- Step      990 ----- CPU =      0.4684 (sec) ----------------
PotEng   =  3.1368730e+04 Temp     =  1.6058116e+05 Press    =  5.8066001e+03 
---------------- Step     1000 ----- CPU =      0.4729 (sec) ----------------
PotEng   =  3.1670262e+04 Temp     =  1.4135742e+05 Press    =  2.8165207e+03 
---------------- Step     1010 ----- CPU =      0.4774 (sec) ----------------
PotEng   =  3.0306301e+04 Temp     =  1.4456050e+05 Press    =  4.0465215e+03 
---------------- Step     1020 ----- CPU =      0.4820 (sec) ----------------
PotEng   =  3.0585645e+04 Temp     =  1.5950932e+05 Press    =  6.1156723e+03 
---------------- Step     1030 ----- CPU =      0.4865 (sec) ----------------
PotEng   =  2.9836211e+04 Temp     =  1.5412483e+05 Press    =  5.5597358e+03 
---------------- Step     1040 ----- CPU =      0.4911 (sec) ----------------
PotEng   =  3.0526374e+04 Temp     =  1.6479472e+05 Press    =  6.3154394e+03 
---------------- Step     1050 ----- CPU =      0.4959 (sec) ----------------
PotEng   =  3.0018670e+04 Temp     =  1.5227902e+05 Press    =  4.5037309e+03 
---------------- Step     1060 ----- CPU =      0.5004 (sec) ----------------
PotEng   =  2.9902252e+04 Temp     =  1.3537220e+05 Press    =  1.3244115e+03 
---------------- Step     1070 ----- CPU =      0.5049 (sec) ----------------
PotEng   =  2.9095920e+04 Temp     =  1.6406175e+05 Press    =  5.6570859e+03 
---------------- Step     1080 ----- CPU =      0.5094 (sec) ----------------
PotEng   =  2.9023559e+04 Temp     =  1.5838512e+05 Press    =  5.4152803e+03 
---------------- Step     1090 ----- CPU =      0.5139 (sec) ----------------
PotEng   =  2.9379161e+04 Temp     =  1.5045941e+05 Press    =  3.9441848e+03 
---------------- Step     1100 ----- CPU =      0.5185 (sec) ----------------
PotEng   =  2.8697975e+04 Temp     =  1.5821023e+05 Press    =  5.0739405e+03 
---------------- Step     1110 ----- CPU =      0.5229 (sec) ----------------
PotEng   =  2.7339629e+04 Temp     =  1.5954125e+05 Press    =  5.1966089e+03 
---------------- Step     1120 ----- CPU =      0.5274 (sec) ----------------
PotEng   =  2.7505445e+04 Temp     =  1.4481633e+05 Press    =  3.2923544e+03 
---------------- Step     1130 ----- CPU =      0.5319 (sec) ----------------
PotEng   =  2.6347183e+04 Temp     =  1.6484964e+05 Press    =  7.0439973e+03 
---------------- Step     1140 ----- CPU =      0.5365 (sec) ----------------
PotEng   =  2.6462292e+04 Temp     =  1.4292709e+05 Press    =  3.3549664e+03 
---------------- Step     1150 ----- CPU =      0.5412 (sec) ----------------
PotEng   =  2.6552060e+04 Temp     =  1.4256513e+05 Press    =  3.6365632e+03 
---------------- Step     1160 ----- CPU =      0.5457 (sec) ----------------
PotEng   =  2.6663852e+04 Temp     =  1.4509695e+05 Press    =  3.6764242e+03 
---------------- Step     1170 ----- CPU =      0.5503 (sec) ----------------
PotEng   =  2.7218268e+04 Temp     =  1.5980908e+05 Press    =  5.9055498e+03 
---------------- Step     1180 ----- CPU =      0.5549 (sec) ----------------
PotEng   =  2.8255134e+04 Temp     =  1.5008208e+05 Press    =  3.9029836e+03 
---------------- Step     1190 ----- CPU =      0.5595 (sec) ----------------
PotEng   =  2.8539667e+04 Temp     =  1.4744110e+05 Press    =  3.5609791e+03 
---------------- Step     1200 ----- CPU =      0.5642 (sec) ----------------
PotEng   =  2.9173129e+04 Temp     =  1.6203257e+05 Press    =  5.8588288e+03 
---------------- Step     1210 ----- CPU =      0.5687 (sec) ----------------
PotEng   =  3.0255239e+04 Temp     =  1.4143185e+05 Press    =  2.3866268e+03 
---------------- Step     1220 ----- CPU =      0.5735 (sec) ----------------
PotEng   =  3.0962270e+04 Temp     =  1.5334363e+05 Press    =  2.9109577e+03 
---------------- Step     1230 ----- CPU =      0.5780 (sec) ----------------
PotEng   =  3.1356512e+04 Temp     =  1.4724578e+05 Press    =  1.7382700e+03 
---------------- Step     1240 ----- CPU =      0.5826 (sec) ----------------
PotEng   =  3.1559061e+04 Temp     =  1.5394473e+05 Press    =  2.8040617e+03 
---------------- Step     1250 ----- CPU =      0.5872 (sec) ----------------
PotEng   =  3.2102884e+04 Temp     =  1.5230270e+05 Press    =  2.1383694e+03 
---------------- Step     1260 ----- CPU =      0.5918 (sec) ----------------
PotEng   =  3.2475324e+04 Temp     =  1.6298322e+05 Press    =  4.0332317e+03 
---------------- Step     1270 ----- CPU =      0.5964 (sec) ----------------
PotEng   =  3.3171334e+04 Temp     =  1.4624972e+05 Press    =  1.8743165e+03 
---------------- Step     1280 ----- CPU =      0.6008 (sec) ----------------
PotEng   =  3.2983852e+04 Temp     =  1.4647195e+05 Press    =  1.1504626e+03 
---------------- Step     1290 ----- CPU =      0.6053 (sec) ----------------
PotEng   =  3.1622934e+04 Temp     =  1.5887914e+05 Press    =  2.9135416e+03 
---------------- Step     1300 ----- CPU =      0.6097 (sec) ----------------
PotEng   =  3.1993602e+04 Temp     =  1.4955058e+05 Press    =  1.3450918e+03 
---------------- Step     1310 ----- CPU =      0.6141 (sec) ----------------
PotEng   =  3.0286167e+04 Temp     =  1.3963164e+05 Press    =  8.8662814e+02 
---------------- Step     1320 ----- CPU =      0.6186 (sec) ----------------
PotEng   =  2.8875200e+04 Temp     =  1.4925439e+05 Press    =  2.6322190e+03 
---------------- Step     1330 ----- CPU =      0.6230 (sec) ----------------
PotEng   =  2.9013643e+04 Temp     =  1.4802715e+05 Press    =  2.5929317e+03 
---------------- Step     1340 ----- CPU =      0.6278 (sec) ----------------
PotEng   =  2.8929310e+04 Temp     =  1.5216123e+05 Press    =  3.3128397e+03 
---------------- Step     1350 ----- CPU =      0.6323 (sec) ----------------
PotEng   =  2.9244699e+04 Temp     =  1.5645991e+05 Press    =  3.6710694e+03 
---------------- Step     1360 ----- CPU =      0.6368 (sec) ----------------
PotEng   =  2.9190427e+04 Temp     =  1.5362580e+05 Press    =  3.7412201e+03 
---------------- Step     1370 ----- CPU =      0.6414 (sec) ----------------
PotEng   =  2.7367642e+04 Temp     =  1.4959388e+05 Press    =  2.9344808e+03 
---------------- Step     1380 ----- CPU =      0.6459 (sec) ----------------
PotEng   =  2.9487908e+04 Temp     =  1.5098144e+05 Press    =  3.9736546e+03 
---------------- Step     1390 ----- CPU =      0.6505 (sec) ----------------
PotEng   =  2.8578264e+04 Temp     =  1.5367577e+05 Press    =  4.8795142e+03 
---------------- Step     1400 ----- CPU =      0.6551 (sec) ----------------
PotEng   =  2.8149241e+04 Temp     =  1.5007461e+05 Press    =  5.7650251e+03 
---------------- Step     1410 ----- CPU =      0.6596 (sec) ----------------
PotEng   =  2.8753015e+04 Temp     =  1.5994354e+05 Press    =  6.0337767e+03 
---------------- Step     1420 ----- CPU =      0.6643 (sec) ----------------
PotEng   =  2.9656523e+04 Temp     =  1.5108417e+05 Press    =  3.2905100e+03 
---------------- Step     1430 ----- CPU =      0.6690 (sec) ----------------
PotEng   =  3.1151298e+04 Temp     =  1.5163478e+05 Press    =  2.6277948e+03 
---------------- Step     1440 ----- CPU =      0.6735 (sec) ----------------
PotEng   =  3.0872074e+04 Temp     =  1.4180396e+05 Press    =  1.5240593e+03 
---------------- Step     1450 ----- CPU =      0.6781 (sec) ----------------
PotEng   =  3.1156890e+04 Temp     =  1.4323016e+05 Press    =  1.4089246e+03 
---------------- Step     1460 ----- CPU =      0.6826 (sec) ----------------
PotEng   =  3.1855756e+04 Temp     =  1.3036745e+05 Press    = -1.1625546e+03 
---------------- Step     1470 ----- CPU =      0.6871 (sec) ----------------
PotEng   =  3.0965890e+04 Temp     =  1.5156615e+05 Press    =  2.5160067e+03 
---------------- Step     1480 ----- CPU =      0.6915 (sec) ----------------
PotEng   =  3.1644037e+04 Temp     =  1.7263587e+05 Press    =  5.3624562e+03 
---------------- Step     1490 ----- CPU =      0.6961 (sec) ----------------
PotEng   =  3.1165143e+04 Temp     =  1.5143277e+05 Press    =  2.1729313e+03 
---------------- Step     1500 ----- CPU =      0.7006 (sec) ----------------
PotEng   =  3.0475027e+04 Temp     =  1.3690871e+05 Press    =  1.5367072e+02 
---------------- Step     1510 ----- CPU =      0.7051 (sec) ----------------
PotEng   =  3.0544418e+04 Temp     =  1.4425641e+05 Press    =  5.0937886e+02 
---------------- Step     1520 ----- CPU =      0.7095 (sec) ----------------
PotEng   =  2.9977133e+04 Temp     =  1.5840537e+05 Press    =  2.6892256e+03 
---------------- Step     1530 ----- CPU =      0.7140 (sec) ----------------
PotEng   =  3.1239563e+04 Temp     =  1.6058963e+05 Press    =  2.8549885e+03 
---------------- Step     1540 ----- CPU =      0.7186 (sec) ----------------
PotEng   =  3.1837072e+04 Temp     =  1.5099145e+05 Press    =  1.0742497e+03 
---------------- Step     1550 ----- CPU =      0.7230 (sec) ----------------
PotEng   =  3.3045230e+04 Temp     =  1.6630707e+05 Press    =  3.1774959e+03 
---------------- Step     1560 ----- CPU =      0.7290 (sec) ----------------
PotEng   =  3.2485953e+04 Temp     =  1.3935132e+05 Press    = -1.1074015e+03 
---------------- Step     1570 ----- CPU =      0.7335 (sec) ----------------
PotEng   =  3.1908975e+04 Temp     =  1.5902930e+05 Press    =  2.4384221e+03 
---------------- Step     1580 ----- CPU =      0.7380 (sec) ----------------
PotEng   =  3.2395714e+04 Temp     =  1.4369928e+05 Press    =  1.0058824e+03 
---------------- Step     1590 ----- CPU =      0.7426 (sec) ----------------
PotEng   =  3.0541354e+04 Temp     =  1.6275536e+05 Press    =  4.7349562e+03 
---------------- Step     1600 ----- CPU =      0.7472 (sec) ----------------
PotEng   =  3.0855603e+04 Temp     =  1.4025369e+05 Press    =  1.7208220e+03 
---------------- Step     1610 ----- CPU =      0.7518 (sec) ----------------
PotEng   =  2.9229750e+04 Temp     =  1.5454285e+05 Press    =  4.7563190e+03 
---------------- Step     1620 ----- CPU =      0.7564 (sec) ----------------
PotEng   =  2.7353789e+04 Temp     =  1.5285460e+05 Press    =  4.6275527e+03 
---------------- Step     1630 ----- CPU =      0.7610 (sec) ----------------
PotEng   =  2.8078026e+04 Temp     =  1.4438718e+05 Press    =  2.9481678e+03 
---------------- Step     1640 ----- CPU =      0.7656 (sec) ----------------
PotEng   =  2.7178814e+04 Temp     =  1.6105371e+05 Press    =  5.7097730e+03 
---------------- Step     1650 ----- CPU =      0.7702 (sec) ----------------
PotEng   =  2.8243664e+04 Temp     =  1.5199135e+05 Press    =  3.1512880e+03 
---------------- Step     1660 ----- CPU =      0.7749 (sec) ----------------
PotEng   =  2.7772335e+04 Temp     =  1.4770850e+05 Press    =  1.8942171e+03 
---------------- Step     1670 ----- CPU =      0.7794 (sec) ----------------
PotEng   =  2.7011394e+04 Temp     =  1.6323692e+05 Press    =  3.2041503e+03 
---------------- Step     1680 ----- CPU =      0.7839 (sec) ----------------
PotEng   =  2.7891826e+04 Temp     =  1.4274870e+05 Press    = -3.2655682e+02 
---------------- Step     1690 ----- CPU =      0.7884 (sec) ----------------
PotEng   =  2.7158173e+04 Temp     =  1.4963965e+05 Press    =  4.9847207e+02 
---------------- Step     1700 ----- CPU =      0.7929 (sec) ----------------
PotEng   =  2.7563243e+04 Temp     =  1.5802976e+05 Press    =  1.5240158e+03 
---------------- Step     1710 ----- CPU =      0.7973 (sec) ----------------
PotEng   =  2.8127222e+04 Temp     =  1.6044003e+05 Press    =  1.8158391e+03 
---------------- Step     1720 ----- CPU =      0.8018 (sec) ----------------
PotEng   =  2.7527621e+04 Temp     =  1.3386065e+05 Press    = -1.7497517e+03 
---------------- Step     1730 ----- CPU =      0.8064 (sec) ----------------
PotEng   =  2.7098649e+04 Temp     =  1.5772627e+05 Press    =  2.0161510e+03 
---------------- Step     1740 ----- CPU =      0.8109 (sec) ----------------
PotEng   =  2.5990249e+04 Temp     =  1.6436428e+05 Press    =  2.6271087e+03 
---------------- Step     1750 ----- CPU =      0.8155 (sec) ----------------
PotEng   =  2.7532699e+04 Temp     =  1.6417423e+05 Press    =  3.6111605e+03 
---------------- Step     1760 ----- CPU =      0.8200 (sec) ----------------
PotEng   =  2.6407341e+04 Temp     =  1.4373669e+05 Press    =  1.2758498e+03 
---------------- Step     1770 ----- CPU =      0.8245 (sec) ----------------
PotEng   =  2.5290964e+04 Temp     =  1.6508758e+05 Press    =  5.4198623e+03 
---------------- Step     1780 ----- CPU =      0.8291 (sec) ----------------
PotEng   =  2.5801598e+04 Temp     =  1.4249422e+05 Press    =  1.0858734e+03 
---------------- Step     1790 ----- CPU =      0.8337 (sec) ----------------
PotEng   =  2.5841786e+04 Temp     =  1.5946655e+05 Press    =  4.0270826e+03 
---------------- Step     1800 ----- CPU =      0.8382 (sec) ----------------
PotEng   =  2.6712504e+04 Temp     =  1.4426984e+05 Press    =  1.0915345e+03 
---------------- Step     1810 ----- CPU =      0.8428 (sec) ----------------
PotEng   =  2.6556474e+04 Temp     =  1.5428384e+05 Press    =  2.5220632e+03 
---------------- Step     1820 ----- CPU =      0.8477 (sec) ----------------
PotEng   =  2.6165629e+04 Temp     =  1.5410320e+05 Press    =  2.8866456e+03 
---------------- Step     1830 ----- CPU =      0.8522 (sec) ----------------
PotEng   =  2.6389157e+04 Temp     =  1.3579737e+05 Press    = -5.2050207e+02 
---------------- Step     1840 ----- CPU =      0.8568 (sec) ----------------
PotEng   =  2.7319762e+04 Temp     =  1.6090708e+05 Press    =  2.7944751e+03 
---------------- Step     1850 ----- CPU =      0.8614 (sec) ----------------
PotEng   =  2.6233082e+04 Temp     =  1.5610072e+05 Press    =  2.5455644e+03 
---------------- Step     1860 ----- CPU =      0.8660 (sec) ----------------
PotEng   =  2.2385846e+04 Temp     =  1.6591966e+05 Press    =  3.0871352e+03 
---------------- Step     1870 ----- CPU =      0.8707 (sec) ----------------
PotEng   =  2.7676003e+04 Temp     =  1.5762747e+05 Press    =  2.0132227e+03 
---------------- Step     1880 ----- CPU =      0.8752 (sec) ----------------
PotEng   =  2.7337233e+04 Temp     =  1.5740653e+05 Press    =  1.8128287e+03 
---------------- Step     1890 ----- CPU =      0.8798 (sec) ----------------
PotEng   =  2.7405363e+04 Temp     =  1.5261295e+05 Press    =  9.6034819e+02 
---------------- Step     1900 ----- CPU =      0.8844 (sec) ----------------
PotEng   =  2.8503144e+04 Temp     =  1.5183620e+05 Press    = -1.5732456e+02 
---------------- Step     1910 ----- CPU =      0.8890 (sec) ----------------
PotEng   =  2.8020652e+04 Temp     =  1.4289640e+05 Press    = -1.3733022e+03 
---------------- Step     1920 ----- CPU =      0.8936 (sec) ----------------
PotEng   =  2.8458992e+04 Temp     =  1.5978000e+05 Press    =  1.7026601e+03 
---------------- Step     1930 ----- CPU =      0.8982 (sec) ----------------
PotEng   =  2.7635864e+04 Temp     =  1.5511155e+05 Press    =  6.6459021e+02 
---------------- Step     1940 ----- CPU =      0.9027 (sec) ----------------
PotEng   =  2.8049739e+04 Temp     =  1.5317367e+05 Press    =  1.3262085e+03 
---------------- Step     1950 ----- CPU =      0.9074 (sec) ----------------
PotEng   =  2.6246525e+04 Temp     =  1.4143037e+05 Press    =  1.2904180e+03 
---------------- Step     1960 ----- CPU =      0.9119 (sec) ----------------
PotEng   =  2.7899109e+04 Temp     =  1.4115866e+05 Press    =  2.9876335e+02 
---------------- Step     1970 ----- CPU =      0.9163 (sec) ----------------
PotEng   =  2.4400899e+04 Temp     =  1.6343385e+05 Press    =  3.6836674e+03 
---------------- Step     1980 ----- CPU =      0.9208 (sec) ----------------
PotEng   =  3.0344762e+04 Temp     =  1.4592246e+05 Press    =  1.0306139e+03 
---------------- Step     1990 ----- CPU =      0.9254 (sec) ----------------
PotEng   =  3.0015464e+04 Temp     =  1.5304462e+05 Press    =  2.3673127e+03 
---------------- Step     2000 ----- CPU =      0.9299 (sec) ----------------
PotEng   =  3.0508677e+04 Temp     =  1.5461216e+05 Press    =  1.9788079e+03 
Loop time of 0.929916 on 5 procs for 2000 steps with 180 atoms

Performance: 9.064 ns/day, 2.648 hours/ns, 2150.731 timesteps/s
498.7% CPU use with 1 MPI tasks x 5 OpenMP threads

MPI task timing breakdown:
Section |  min time  |  avg time  |  max time  |%varavg| %total
---------------------------------------------------------------
Pair    | 0.49181    | 0.49181    | 0.49181    |   0.0 | 52.89
Bond    | 0.0043918  | 0.0043918  | 0.0043918  |   0.0 |  0.47
Kspace  | 0.35884    | 0.35884    | 0.35884    |   0.0 | 38.59
Neigh   | 0.0038826  | 0.0038826  | 0.0038826  |   0.0 |  0.42
Comm    | 0.0078421  | 0.0078421  | 0.0078421  |   0.0 |  0.84
Output  | 0.00096846 | 0.00096846 | 0.00096846 |   0.0 |  0.10
Modify  | 0.060971   | 0.060971   | 0.060971   |   0.0 |  6.56
Other   |            | 0.001214   |            |       |  0.13

Nlocal:    180 ave 180 max 180 min
Histogram: 1 0 0 0 0 0 0 0 0 0
Nghost:    1078 ave 1078 max 1078 min
Histogram: 1 0 0 0 0 0 0 0 0 0
Neighs:    6856 ave 6856 max 6856 min
Histogram: 1 0 0 0 0 0 0 0 0 0

Total # of neighbors = 6856
Ave neighs/atom = 38.0889
Ave special neighs/atom = 3.5
Neighbor list builds = 34
Dangerous builds = 1

#restart thermo
reset_timestep  0
thermo          10
thermo_style    custom pe temp press
WARNING: New thermo_style command, previous thermo_modify settings will be lost (../output.cpp:705)
thermo_modify   line multi norm no format float %14.7e

#setup trajectory output
dump            myDump all custom 10 /home/mnguyen/bin/PECG/test_PAAf0.5_implicitSol_NVT/tmpGE1w6N1.trj.lammpstrj id type x y z mol
dump_modify     myDump element A- A
dump_modify     myDump sort id
dump_modify     myDump format line  "%d %d %14.7e %14.7e %14.7e %d"

#run production
run             2000
PPPM initialization ...
  using 12-bit tables for long-range coulomb (../kspace.cpp:321)
  G vector (1/distance) = 0.0997632
  grid = 8 8 8
  stencil order = 5
  estimated absolute RMS force accuracy = 0.0217008
  estimated relative force accuracy = 6.53515e-05
  using double precision FFTs
  3d grid and FFT values/proc = 2197 512
No /omp style for force computation currently active
WARNING: Inconsistent image flags (../domain.cpp:782)
Per MPI rank memory allocation (min/avg/max) = 13.98 | 13.98 | 13.98 Mbytes
---------------- Step        0 ----- CPU =      0.0000 (sec) ----------------
PotEng   =  3.0508677e+04 Temp     =  1.5461216e+05 Press    =  1.9788079e+03 
---------------- Step       10 ----- CPU =      0.0048 (sec) ----------------
PotEng   =  3.0306751e+04 Temp     =  1.4324456e+05 Press    = -4.7797795e+02 
---------------- Step       20 ----- CPU =      0.0095 (sec) ----------------
PotEng   =  3.1390541e+04 Temp     =  1.4161337e+05 Press    = -1.2152809e+03 
---------------- Step       30 ----- CPU =      0.0142 (sec) ----------------
PotEng   =  3.0624071e+04 Temp     =  1.5285988e+05 Press    =  1.1517697e+03 
---------------- Step       40 ----- CPU =      0.0189 (sec) ----------------
PotEng   =  2.9593656e+04 Temp     =  1.4708873e+05 Press    =  8.8027583e+02 
---------------- Step       50 ----- CPU =      0.0237 (sec) ----------------
PotEng   =  2.9584420e+04 Temp     =  1.6183604e+05 Press    =  2.8140036e+03 
---------------- Step       60 ----- CPU =      0.0287 (sec) ----------------
PotEng   =  2.8327500e+04 Temp     =  1.5269742e+05 Press    =  2.0318030e+03 
---------------- Step       70 ----- CPU =      0.0335 (sec) ----------------
PotEng   =  2.8972812e+04 Temp     =  1.3781450e+05 Press    = -3.0455281e+02 
---------------- Step       80 ----- CPU =      0.0384 (sec) ----------------
PotEng   =  2.7899143e+04 Temp     =  1.4236316e+05 Press    = -1.6367370e+02 
---------------- Step       90 ----- CPU =      0.0433 (sec) ----------------
PotEng   =  2.7071065e+04 Temp     =  1.6024371e+05 Press    =  2.6136361e+03 
---------------- Step      100 ----- CPU =      0.0481 (sec) ----------------
PotEng   =  2.6976654e+04 Temp     =  1.4061771e+05 Press    = -1.3221303e+02 
---------------- Step      110 ----- CPU =      0.0529 (sec) ----------------
PotEng   =  2.4704233e+04 Temp     =  1.4724311e+05 Press    = -1.7994015e+03 
---------------- Step      120 ----- CPU =      0.0578 (sec) ----------------
PotEng   =  2.8027499e+04 Temp     =  1.6429367e+05 Press    =  1.7245071e+03 
---------------- Step      130 ----- CPU =      0.0628 (sec) ----------------
PotEng   =  2.7967023e+04 Temp     =  1.6031005e+05 Press    =  1.0097296e+03 
---------------- Step      140 ----- CPU =      0.0676 (sec) ----------------
PotEng   =  2.8516595e+04 Temp     =  1.4201273e+05 Press    = -2.0651849e+03 
---------------- Step      150 ----- CPU =      0.0725 (sec) ----------------
PotEng   =  2.9301407e+04 Temp     =  1.4464307e+05 Press    = -2.1145588e+03 
---------------- Step      160 ----- CPU =      0.0773 (sec) ----------------
PotEng   =  2.8986756e+04 Temp     =  1.5050326e+05 Press    = -9.8043483e+02 
---------------- Step      170 ----- CPU =      0.0821 (sec) ----------------
PotEng   =  2.9523396e+04 Temp     =  1.5080179e+05 Press    = -1.9155828e+03 
---------------- Step      180 ----- CPU =      0.0870 (sec) ----------------
PotEng   =  2.9734643e+04 Temp     =  1.5804192e+05 Press    = -5.3564526e+02 
---------------- Step      190 ----- CPU =      0.0918 (sec) ----------------
PotEng   =  2.8414866e+04 Temp     =  1.4361445e+05 Press    = -2.2506935e+03 
---------------- Step      200 ----- CPU =      0.0965 (sec) ----------------
PotEng   =  2.9469237e+04 Temp     =  1.5606926e+05 Press    = -2.9705495e+02 
---------------- Step      210 ----- CPU =      0.1013 (sec) ----------------
PotEng   =  3.0249187e+04 Temp     =  1.5433734e+05 Press    = -1.4543638e+03 
---------------- Step      220 ----- CPU =      0.1061 (sec) ----------------
PotEng   =  2.9855436e+04 Temp     =  1.5078275e+05 Press    = -2.0828146e+03 
---------------- Step      230 ----- CPU =      0.1110 (sec) ----------------
PotEng   =  2.8018849e+04 Temp     =  1.4794376e+05 Press    = -1.6403059e+03 
---------------- Step      240 ----- CPU =      0.1158 (sec) ----------------
PotEng   =  2.9285467e+04 Temp     =  1.6167972e+05 Press    =  1.0658130e+01 
---------------- Step      250 ----- CPU =      0.1207 (sec) ----------------
PotEng   =  2.7888831e+04 Temp     =  1.6248668e+05 Press    =  1.1247465e+03 
---------------- Step      260 ----- CPU =      0.1254 (sec) ----------------
PotEng   =  2.8421137e+04 Temp     =  1.4246727e+05 Press    = -1.4013753e+03 
---------------- Step      270 ----- CPU =      0.1302 (sec) ----------------
PotEng   =  2.7291109e+04 Temp     =  1.4294654e+05 Press    = -7.8397917e+02 
---------------- Step      280 ----- CPU =      0.1350 (sec) ----------------
PotEng   =  2.6610444e+04 Temp     =  1.5007628e+05 Press    = -2.9410440e+02 
---------------- Step      290 ----- CPU =      0.1399 (sec) ----------------
PotEng   =  2.5815857e+04 Temp     =  1.5584596e+05 Press    =  8.0104622e+02 
---------------- Step      300 ----- CPU =      0.1449 (sec) ----------------
PotEng   =  2.8138959e+04 Temp     =  1.5143606e+05 Press    =  1.2403219e+01 
---------------- Step      310 ----- CPU =      0.1497 (sec) ----------------
PotEng   =  2.7575650e+04 Temp     =  1.4531422e+05 Press    = -1.1607502e+03 
---------------- Step      320 ----- CPU =      0.1546 (sec) ----------------
PotEng   =  2.9114498e+04 Temp     =  1.4958080e+05 Press    = -5.5746819e+02 
---------------- Step      330 ----- CPU =      0.1594 (sec) ----------------
PotEng   =  2.8367917e+04 Temp     =  1.5165316e+05 Press    =  9.0975313e+02 
---------------- Step      340 ----- CPU =      0.1643 (sec) ----------------
PotEng   =  2.6986708e+04 Temp     =  1.4863785e+05 Press    =  8.7818728e+02 
---------------- Step      350 ----- CPU =      0.1693 (sec) ----------------
PotEng   =  2.6733481e+04 Temp     =  1.5280563e+05 Press    =  1.7085689e+03 
---------------- Step      360 ----- CPU =      0.1741 (sec) ----------------
PotEng   =  2.5523671e+04 Temp     =  1.4058527e+05 Press    =  4.5348042e+01 
---------------- Step      370 ----- CPU =      0.1790 (sec) ----------------
PotEng   =  2.5713384e+04 Temp     =  1.5478087e+05 Press    =  2.2443120e+03 
---------------- Step      380 ----- CPU =      0.1838 (sec) ----------------
PotEng   =  2.6424518e+04 Temp     =  1.5301089e+05 Press    =  1.8022375e+03 
---------------- Step      390 ----- CPU =      0.1887 (sec) ----------------
PotEng   =  2.6662217e+04 Temp     =  1.4036421e+05 Press    = -4.8223786e+02 
---------------- Step      400 ----- CPU =      0.1935 (sec) ----------------
PotEng   =  2.6336566e+04 Temp     =  1.5313071e+05 Press    =  1.2237391e+03 
---------------- Step      410 ----- CPU =      0.1985 (sec) ----------------
PotEng   =  2.6211847e+04 Temp     =  1.4328932e+05 Press    = -2.8643291e+02 
---------------- Step      420 ----- CPU =      0.2034 (sec) ----------------
PotEng   =  2.6638439e+04 Temp     =  1.5609892e+05 Press    =  9.4240269e+02 
---------------- Step      430 ----- CPU =      0.2082 (sec) ----------------
PotEng   =  2.5374962e+04 Temp     =  1.4825242e+05 Press    =  4.9240321e+02 
---------------- Step      440 ----- CPU =      0.2131 (sec) ----------------
PotEng   =  2.4504159e+04 Temp     =  1.5613374e+05 Press    =  2.3586448e+03 
---------------- Step      450 ----- CPU =      0.2180 (sec) ----------------
PotEng   =  2.6075774e+04 Temp     =  1.6016018e+05 Press    =  2.4293582e+03 
---------------- Step      460 ----- CPU =      0.2228 (sec) ----------------
PotEng   =  2.6980523e+04 Temp     =  1.6623186e+05 Press    =  2.4297918e+03 
---------------- Step      470 ----- CPU =      0.2277 (sec) ----------------
PotEng   =  2.6610302e+04 Temp     =  1.5890646e+05 Press    =  1.1649563e+03 
---------------- Step      480 ----- CPU =      0.2324 (sec) ----------------
PotEng   =  2.5889822e+04 Temp     =  1.5127791e+05 Press    =  9.1640281e+02 
---------------- Step      490 ----- CPU =      0.2374 (sec) ----------------
PotEng   =  2.4398108e+04 Temp     =  1.5282231e+05 Press    =  1.9898971e+03 
---------------- Step      500 ----- CPU =      0.2423 (sec) ----------------
PotEng   =  2.4994910e+04 Temp     =  1.3842285e+05 Press    = -7.9942849e+02 
---------------- Step      510 ----- CPU =      0.2471 (sec) ----------------
PotEng   =  2.4742781e+04 Temp     =  1.5591166e+05 Press    =  2.2893122e+03 
---------------- Step      520 ----- CPU =      0.2550 (sec) ----------------
PotEng   =  2.4291128e+04 Temp     =  1.6048710e+05 Press    =  3.4027266e+03 
---------------- Step      530 ----- CPU =      0.2598 (sec) ----------------
PotEng   =  2.5916188e+04 Temp     =  1.4037536e+05 Press    = -3.1479787e+02 
---------------- Step      540 ----- CPU =      0.2646 (sec) ----------------
PotEng   =  2.6972377e+04 Temp     =  1.6352122e+05 Press    =  2.3678576e+03 
---------------- Step      550 ----- CPU =      0.2693 (sec) ----------------
PotEng   =  2.7335889e+04 Temp     =  1.5853622e+05 Press    =  1.5109052e+03 
---------------- Step      560 ----- CPU =      0.2742 (sec) ----------------
PotEng   =  2.8583294e+04 Temp     =  1.2707982e+05 Press    = -4.3392962e+03 
---------------- Step      570 ----- CPU =      0.2789 (sec) ----------------
PotEng   =  3.0258918e+04 Temp     =  1.5136060e+05 Press    = -1.0802965e+03 
---------------- Step      580 ----- CPU =      0.2836 (sec) ----------------
PotEng   =  3.0490578e+04 Temp     =  1.5635266e+05 Press    =  1.0511458e+02 
---------------- Step      590 ----- CPU =      0.2884 (sec) ----------------
PotEng   =  2.9519764e+04 Temp     =  1.4282221e+05 Press    = -1.4369257e+03 
---------------- Step      600 ----- CPU =      0.2934 (sec) ----------------
PotEng   =  3.0012009e+04 Temp     =  1.4950735e+05 Press    = -1.0472936e+03 
---------------- Step      610 ----- CPU =      0.2981 (sec) ----------------
PotEng   =  3.0157566e+04 Temp     =  1.4894422e+05 Press    = -6.6103349e+02 
---------------- Step      620 ----- CPU =      0.3028 (sec) ----------------
PotEng   =  2.9427030e+04 Temp     =  1.5438898e+05 Press    =  1.8312186e+03 
---------------- Step      630 ----- CPU =      0.3076 (sec) ----------------
PotEng   =  2.9825895e+04 Temp     =  1.5461879e+05 Press    =  1.5907820e+03 
---------------- Step      640 ----- CPU =      0.3124 (sec) ----------------
PotEng   =  2.7802504e+04 Temp     =  1.4668229e+05 Press    =  1.8537570e+03 
---------------- Step      650 ----- CPU =      0.3173 (sec) ----------------
PotEng   =  2.7538888e+04 Temp     =  1.5300638e+05 Press    =  3.0835712e+03 
---------------- Step      660 ----- CPU =      0.3221 (sec) ----------------
PotEng   =  2.8278806e+04 Temp     =  1.4081126e+05 Press    =  1.6975983e+03 
---------------- Step      670 ----- CPU =      0.3269 (sec) ----------------
PotEng   =  2.7559497e+04 Temp     =  1.4305455e+05 Press    =  2.0805423e+03 
---------------- Step      680 ----- CPU =      0.3316 (sec) ----------------
PotEng   =  2.6925659e+04 Temp     =  1.5677014e+05 Press    =  4.5334020e+03 
---------------- Step      690 ----- CPU =      0.3366 (sec) ----------------
PotEng   =  2.6188408e+04 Temp     =  1.4883954e+05 Press    =  3.6373641e+03 
---------------- Step      700 ----- CPU =      0.3415 (sec) ----------------
PotEng   =  2.6998841e+04 Temp     =  1.4906077e+05 Press    =  3.0820074e+03 
---------------- Step      710 ----- CPU =      0.3464 (sec) ----------------
PotEng   =  2.6224308e+04 Temp     =  1.4370566e+05 Press    =  2.6808243e+03 
---------------- Step      720 ----- CPU =      0.3512 (sec) ----------------
PotEng   =  2.6392143e+04 Temp     =  1.3746968e+05 Press    =  2.0330585e+03 
---------------- Step      730 ----- CPU =      0.3560 (sec) ----------------
PotEng   =  2.6465880e+04 Temp     =  1.4697491e+05 Press    =  3.9310641e+03 
---------------- Step      740 ----- CPU =      0.3607 (sec) ----------------
PotEng   =  2.6953098e+04 Temp     =  1.6133355e+05 Press    =  6.1997177e+03 
---------------- Step      750 ----- CPU =      0.3655 (sec) ----------------
PotEng   =  2.7208226e+04 Temp     =  1.5263072e+05 Press    =  5.3402414e+03 
---------------- Step      760 ----- CPU =      0.3704 (sec) ----------------
PotEng   =  2.7304322e+04 Temp     =  1.5478527e+05 Press    =  6.3870725e+03 
---------------- Step      770 ----- CPU =      0.3752 (sec) ----------------
PotEng   =  2.6888736e+04 Temp     =  1.5938843e+05 Press    =  6.3405225e+03 
---------------- Step      780 ----- CPU =      0.3801 (sec) ----------------
PotEng   =  2.7212953e+04 Temp     =  1.5606042e+05 Press    =  4.5936853e+03 
---------------- Step      790 ----- CPU =      0.3850 (sec) ----------------
PotEng   =  2.7699954e+04 Temp     =  1.5157092e+05 Press    =  3.6417764e+03 
---------------- Step      800 ----- CPU =      0.3898 (sec) ----------------
PotEng   =  2.9309106e+04 Temp     =  1.5690359e+05 Press    =  3.1110793e+03 
---------------- Step      810 ----- CPU =      0.3946 (sec) ----------------
PotEng   =  2.7955693e+04 Temp     =  1.6672061e+05 Press    =  5.2467217e+03 
---------------- Step      820 ----- CPU =      0.3994 (sec) ----------------
PotEng   =  2.9528000e+04 Temp     =  1.4953501e+05 Press    =  2.8721403e+03 
---------------- Step      830 ----- CPU =      0.4043 (sec) ----------------
PotEng   =  2.7408062e+04 Temp     =  1.5179746e+05 Press    =  2.5179260e+03 
---------------- Step      840 ----- CPU =      0.4091 (sec) ----------------
PotEng   =  3.2300635e+04 Temp     =  1.4449038e+05 Press    =  4.1084656e+02 
---------------- Step      850 ----- CPU =      0.4139 (sec) ----------------
PotEng   =  3.2479941e+04 Temp     =  1.4063453e+05 Press    = -4.4680153e+02 
---------------- Step      860 ----- CPU =      0.4186 (sec) ----------------
PotEng   =  3.0030233e+04 Temp     =  1.5395815e+05 Press    =  2.8200469e+03 
---------------- Step      870 ----- CPU =      0.4233 (sec) ----------------
PotEng   =  2.8882996e+04 Temp     =  1.4921508e+05 Press    =  2.4912208e+03 
---------------- Step      880 ----- CPU =      0.4281 (sec) ----------------
PotEng   =  2.9388856e+04 Temp     =  1.4483678e+05 Press    =  5.8079342e+02 
---------------- Step      890 ----- CPU =      0.4330 (sec) ----------------
PotEng   =  3.0676257e+04 Temp     =  1.5370181e+05 Press    =  6.4229779e+02 
---------------- Step      900 ----- CPU =      0.4377 (sec) ----------------
PotEng   =  3.0871401e+04 Temp     =  1.5109749e+05 Press    =  4.5533072e+02 
---------------- Step      910 ----- CPU =      0.4424 (sec) ----------------
PotEng   =  3.0840612e+04 Temp     =  1.4541627e+05 Press    = -1.1448142e+03 
---------------- Step      920 ----- CPU =      0.4472 (sec) ----------------
PotEng   =  3.0167642e+04 Temp     =  1.6552882e+05 Press    =  1.9977497e+03 
---------------- Step      930 ----- CPU =      0.4520 (sec) ----------------
PotEng   =  2.8591908e+04 Temp     =  1.3563264e+05 Press    = -1.6694437e+03 
---------------- Step      940 ----- CPU =      0.4569 (sec) ----------------
PotEng   =  2.7074208e+04 Temp     =  1.6188020e+05 Press    =  3.2693900e+03 
---------------- Step      950 ----- CPU =      0.4618 (sec) ----------------
PotEng   =  2.7395655e+04 Temp     =  1.4663019e+05 Press    =  8.7522707e+02 
---------------- Step      960 ----- CPU =      0.4668 (sec) ----------------
PotEng   =  2.7253616e+04 Temp     =  1.4587976e+05 Press    =  1.0274872e+03 
---------------- Step      970 ----- CPU =      0.4717 (sec) ----------------
PotEng   =  2.7213580e+04 Temp     =  1.3858033e+05 Press    = -8.4782356e+01 
---------------- Step      980 ----- CPU =      0.4765 (sec) ----------------
PotEng   =  2.6996192e+04 Temp     =  1.4297330e+05 Press    = -1.4741238e+02 
---------------- Step      990 ----- CPU =      0.4814 (sec) ----------------
PotEng   =  2.7017271e+04 Temp     =  1.5304299e+05 Press    =  1.7863744e+03 
---------------- Step     1000 ----- CPU =      0.4863 (sec) ----------------
PotEng   =  2.7022189e+04 Temp     =  1.4699846e+05 Press    =  5.9575462e+02 
---------------- Step     1010 ----- CPU =      0.4913 (sec) ----------------
PotEng   =  2.6853133e+04 Temp     =  1.4001624e+05 Press    =  8.4004775e+01 
---------------- Step     1020 ----- CPU =      0.4961 (sec) ----------------
PotEng   =  2.6183603e+04 Temp     =  1.4586616e+05 Press    =  1.5744178e+03 
---------------- Step     1030 ----- CPU =      0.5010 (sec) ----------------
PotEng   =  2.5711053e+04 Temp     =  1.5964015e+05 Press    =  4.5213686e+03 
---------------- Step     1040 ----- CPU =      0.5058 (sec) ----------------
PotEng   =  2.6576175e+04 Temp     =  1.4760805e+05 Press    =  2.8897841e+03 
---------------- Step     1050 ----- CPU =      0.5135 (sec) ----------------
PotEng   =  2.7475702e+04 Temp     =  1.3937474e+05 Press    =  1.3657845e+03 
---------------- Step     1060 ----- CPU =      0.5186 (sec) ----------------
PotEng   =  2.7585305e+04 Temp     =  1.4738475e+05 Press    =  2.4200792e+03 
---------------- Step     1070 ----- CPU =      0.5234 (sec) ----------------
PotEng   =  2.7908773e+04 Temp     =  1.5216784e+05 Press    =  3.4769810e+03 
---------------- Step     1080 ----- CPU =      0.5283 (sec) ----------------
PotEng   =  2.8204304e+04 Temp     =  1.5266126e+05 Press    =  3.9536150e+03 
---------------- Step     1090 ----- CPU =      0.5331 (sec) ----------------
PotEng   =  2.9093220e+04 Temp     =  1.6009946e+05 Press    =  4.0102481e+03 
---------------- Step     1100 ----- CPU =      0.5380 (sec) ----------------
PotEng   =  2.9499418e+04 Temp     =  1.3241848e+05 Press    = -3.9426553e+02 
---------------- Step     1110 ----- CPU =      0.5428 (sec) ----------------
PotEng   =  2.9232644e+04 Temp     =  1.4724242e+05 Press    =  2.5560353e+03 
---------------- Step     1120 ----- CPU =      0.5479 (sec) ----------------
PotEng   =  2.9072385e+04 Temp     =  1.4399766e+05 Press    =  2.7449459e+03 
---------------- Step     1130 ----- CPU =      0.5528 (sec) ----------------
PotEng   =  3.0557138e+04 Temp     =  1.4882756e+05 Press    =  2.2074815e+03 
---------------- Step     1140 ----- CPU =      0.5576 (sec) ----------------
PotEng   =  3.0386604e+04 Temp     =  1.4132446e+05 Press    =  1.0091880e+03 
---------------- Step     1150 ----- CPU =      0.5625 (sec) ----------------
PotEng   =  3.1157362e+04 Temp     =  1.4992692e+05 Press    =  1.0338223e+03 
---------------- Step     1160 ----- CPU =      0.5673 (sec) ----------------
PotEng   =  3.0912307e+04 Temp     =  1.4527094e+05 Press    =  1.0138692e+03 
---------------- Step     1170 ----- CPU =      0.5722 (sec) ----------------
PotEng   =  3.0913913e+04 Temp     =  1.4960310e+05 Press    =  2.2459716e+03 
---------------- Step     1180 ----- CPU =      0.5771 (sec) ----------------
PotEng   =  3.0301389e+04 Temp     =  1.4159936e+05 Press    =  8.6335372e+02 
---------------- Step     1190 ----- CPU =      0.5821 (sec) ----------------
PotEng   =  3.1326182e+04 Temp     =  1.5532788e+05 Press    =  2.5988523e+03 
---------------- Step     1200 ----- CPU =      0.5869 (sec) ----------------
PotEng   =  3.1219233e+04 Temp     =  1.5023621e+05 Press    =  1.5057595e+03 
---------------- Step     1210 ----- CPU =      0.5918 (sec) ----------------
PotEng   =  3.0699553e+04 Temp     =  1.5293040e+05 Press    =  1.8808372e+03 
---------------- Step     1220 ----- CPU =      0.5966 (sec) ----------------
PotEng   =  2.9496072e+04 Temp     =  1.5600668e+05 Press    =  2.8068248e+03 
---------------- Step     1230 ----- CPU =      0.6014 (sec) ----------------
PotEng   =  2.9010530e+04 Temp     =  1.6036418e+05 Press    =  3.6923044e+03 
---------------- Step     1240 ----- CPU =      0.6062 (sec) ----------------
PotEng   =  2.9855194e+04 Temp     =  1.2886886e+05 Press    = -7.9352364e+02 
---------------- Step     1250 ----- CPU =      0.6111 (sec) ----------------
PotEng   =  3.0259361e+04 Temp     =  1.5806745e+05 Press    =  4.2799380e+03 
---------------- Step     1260 ----- CPU =      0.6159 (sec) ----------------
PotEng   =  2.9764764e+04 Temp     =  1.5427842e+05 Press    =  3.7757774e+03 
---------------- Step     1270 ----- CPU =      0.6207 (sec) ----------------
PotEng   =  2.9500996e+04 Temp     =  1.4530639e+05 Press    =  2.8477305e+03 
---------------- Step     1280 ----- CPU =      0.6256 (sec) ----------------
PotEng   =  2.9163362e+04 Temp     =  1.4914396e+05 Press    =  3.9305497e+03 
---------------- Step     1290 ----- CPU =      0.6304 (sec) ----------------
PotEng   =  2.9432102e+04 Temp     =  1.5757331e+05 Press    =  4.5958493e+03 
---------------- Step     1300 ----- CPU =      0.6354 (sec) ----------------
PotEng   =  3.0489004e+04 Temp     =  1.4732162e+05 Press    =  2.6642467e+03 
---------------- Step     1310 ----- CPU =      0.6402 (sec) ----------------
PotEng   =  3.0520026e+04 Temp     =  1.6615310e+05 Press    =  6.2488147e+03 
---------------- Step     1320 ----- CPU =      0.6451 (sec) ----------------
PotEng   =  3.2328009e+04 Temp     =  1.6250076e+05 Press    =  5.6003642e+03 
---------------- Step     1330 ----- CPU =      0.6499 (sec) ----------------
PotEng   =  3.3249762e+04 Temp     =  1.3967275e+05 Press    =  1.8916824e+03 
---------------- Step     1340 ----- CPU =      0.6547 (sec) ----------------
PotEng   =  3.2595190e+04 Temp     =  1.5274365e+05 Press    =  4.2953479e+03 
---------------- Step     1350 ----- CPU =      0.6597 (sec) ----------------
PotEng   =  3.2462077e+04 Temp     =  1.6150951e+05 Press    =  5.0026967e+03 
---------------- Step     1360 ----- CPU =      0.6646 (sec) ----------------
PotEng   =  3.2239877e+04 Temp     =  1.5297204e+05 Press    =  4.4101488e+03 
---------------- Step     1370 ----- CPU =      0.6695 (sec) ----------------
PotEng   =  3.2797762e+04 Temp     =  1.5423026e+05 Press    =  3.8675067e+03 
---------------- Step     1380 ----- CPU =      0.6743 (sec) ----------------
PotEng   =  3.2992948e+04 Temp     =  1.6119491e+05 Press    =  5.1107609e+03 
---------------- Step     1390 ----- CPU =      0.6792 (sec) ----------------
PotEng   =  3.1493159e+04 Temp     =  1.5322738e+05 Press    =  3.4389613e+03 
---------------- Step     1400 ----- CPU =      0.6841 (sec) ----------------
PotEng   =  3.1157505e+04 Temp     =  1.6430767e+05 Press    =  5.4065057e+03 
---------------- Step     1410 ----- CPU =      0.6891 (sec) ----------------
PotEng   =  3.1514401e+04 Temp     =  1.4426128e+05 Press    =  1.9076844e+03 
---------------- Step     1420 ----- CPU =      0.6939 (sec) ----------------
PotEng   =  3.1452777e+04 Temp     =  1.6176647e+05 Press    =  3.7458492e+03 
---------------- Step     1430 ----- CPU =      0.6988 (sec) ----------------
PotEng   =  3.2798422e+04 Temp     =  1.4937203e+05 Press    =  1.1137997e+03 
---------------- Step     1440 ----- CPU =      0.7037 (sec) ----------------
PotEng   =  3.2717353e+04 Temp     =  1.4777248e+05 Press    =  9.5266958e+02 
---------------- Step     1450 ----- CPU =      0.7086 (sec) ----------------
PotEng   =  3.2411876e+04 Temp     =  1.5460633e+05 Press    =  2.3649170e+03 
---------------- Step     1460 ----- CPU =      0.7134 (sec) ----------------
PotEng   =  3.2122060e+04 Temp     =  1.4163315e+05 Press    =  4.0974503e+02 
---------------- Step     1470 ----- CPU =      0.7183 (sec) ----------------
PotEng   =  3.0909883e+04 Temp     =  1.5975423e+05 Press    =  2.6127600e+03 
---------------- Step     1480 ----- CPU =      0.7232 (sec) ----------------
PotEng   =  3.2144448e+04 Temp     =  1.7581609e+05 Press    =  4.7495399e+03 
---------------- Step     1490 ----- CPU =      0.7282 (sec) ----------------
PotEng   =  2.7446195e+04 Temp     =  1.6398940e+05 Press    =  3.4567771e+03 
---------------- Step     1500 ----- CPU =      0.7331 (sec) ----------------
PotEng   =  3.1834634e+04 Temp     =  1.4135519e+05 Press    = -5.2868384e+02 
---------------- Step     1510 ----- CPU =      0.7379 (sec) ----------------
PotEng   =  3.3658238e+04 Temp     =  1.3934283e+05 Press    = -1.6420883e+03 
---------------- Step     1520 ----- CPU =      0.7428 (sec) ----------------
PotEng   =  3.3147405e+04 Temp     =  1.4296662e+05 Press    = -1.3999457e+03 
---------------- Step     1530 ----- CPU =      0.7477 (sec) ----------------
PotEng   =  3.4097731e+04 Temp     =  1.5321600e+05 Press    =  4.6736413e+01 
---------------- Step     1540 ----- CPU =      0.7527 (sec) ----------------
PotEng   =  3.3347693e+04 Temp     =  1.4157398e+05 Press    = -2.0144943e+03 
---------------- Step     1550 ----- CPU =      0.7575 (sec) ----------------
PotEng   =  3.4148242e+04 Temp     =  1.5548529e+05 Press    =  5.9385150e+01 
---------------- Step     1560 ----- CPU =      0.7624 (sec) ----------------
PotEng   =  3.3929404e+04 Temp     =  1.5432286e+05 Press    = -4.6972878e+02 
---------------- Step     1570 ----- CPU =      0.7672 (sec) ----------------
PotEng   =  3.2801925e+04 Temp     =  1.2881837e+05 Press    = -4.1649525e+03 
---------------- Step     1580 ----- CPU =      0.7755 (sec) ----------------
PotEng   =  3.2962670e+04 Temp     =  1.5871667e+05 Press    =  1.6188077e+02 
---------------- Step     1590 ----- CPU =      0.7804 (sec) ----------------
PotEng   =  3.3358634e+04 Temp     =  1.6146563e+05 Press    =  4.8624116e+02 
---------------- Step     1600 ----- CPU =      0.7852 (sec) ----------------
PotEng   =  3.2903531e+04 Temp     =  1.3467073e+05 Press    = -3.7567817e+03 
---------------- Step     1610 ----- CPU =      0.7901 (sec) ----------------
PotEng   =  3.2492006e+04 Temp     =  1.5313057e+05 Press    = -8.6727584e+02 
---------------- Step     1620 ----- CPU =      0.7950 (sec) ----------------
PotEng   =  3.0357639e+04 Temp     =  1.5652502e+05 Press    =  7.1614238e+02 
---------------- Step     1630 ----- CPU =      0.7998 (sec) ----------------
PotEng   =  2.9929970e+04 Temp     =  1.4537703e+05 Press    = -1.1590360e+03 
---------------- Step     1640 ----- CPU =      0.8046 (sec) ----------------
PotEng   =  2.9885592e+04 Temp     =  1.5984461e+05 Press    =  8.5551442e+02 
---------------- Step     1650 ----- CPU =      0.8096 (sec) ----------------
PotEng   =  3.0186387e+04 Temp     =  1.4844185e+05 Press    = -1.7268140e+03 
---------------- Step     1660 ----- CPU =      0.8144 (sec) ----------------
PotEng   =  3.0631966e+04 Temp     =  1.3611311e+05 Press    = -4.0924115e+03 
---------------- Step     1670 ----- CPU =      0.8191 (sec) ----------------
PotEng   =  3.0787771e+04 Temp     =  1.6698785e+05 Press    =  7.5935762e+02 
---------------- Step     1680 ----- CPU =      0.8238 (sec) ----------------
PotEng   =  2.9642326e+04 Temp     =  1.5625988e+05 Press    = -4.8859395e+02 
---------------- Step     1690 ----- CPU =      0.8286 (sec) ----------------
PotEng   =  2.9488170e+04 Temp     =  1.4552215e+05 Press    = -1.9639321e+03 
---------------- Step     1700 ----- CPU =      0.8334 (sec) ----------------
PotEng   =  3.0357534e+04 Temp     =  1.5086522e+05 Press    = -9.3812921e+02 
---------------- Step     1710 ----- CPU =      0.8383 (sec) ----------------
PotEng   =  2.9317303e+04 Temp     =  1.4721498e+05 Press    = -1.8532422e+03 
---------------- Step     1720 ----- CPU =      0.8434 (sec) ----------------
PotEng   =  2.8295924e+04 Temp     =  1.6193137e+05 Press    =  1.0255340e+03 
---------------- Step     1730 ----- CPU =      0.8482 (sec) ----------------
PotEng   =  2.7760543e+04 Temp     =  1.6223195e+05 Press    =  1.2495710e+03 
---------------- Step     1740 ----- CPU =      0.8531 (sec) ----------------
PotEng   =  2.7636643e+04 Temp     =  1.4937839e+05 Press    = -1.2357165e+03 
---------------- Step     1750 ----- CPU =      0.8579 (sec) ----------------
PotEng   =  2.8575236e+04 Temp     =  1.4529324e+05 Press    = -2.5822900e+03 
---------------- Step     1760 ----- CPU =      0.8627 (sec) ----------------
PotEng   =  2.9115949e+04 Temp     =  1.7206748e+05 Press    =  8.9437770e+02 
---------------- Step     1770 ----- CPU =      0.8675 (sec) ----------------
PotEng   =  2.7387541e+04 Temp     =  1.3997515e+05 Press    = -2.3755109e+03 
---------------- Step     1780 ----- CPU =      0.8724 (sec) ----------------
PotEng   =  2.7200886e+04 Temp     =  1.5149158e+05 Press    = -2.0116184e+02 
---------------- Step     1790 ----- CPU =      0.8771 (sec) ----------------
PotEng   =  2.6129892e+04 Temp     =  1.5186805e+05 Press    =  1.3996274e+03 
---------------- Step     1800 ----- CPU =      0.8818 (sec) ----------------
PotEng   =  2.5850685e+04 Temp     =  1.4206054e+05 Press    =  5.7161296e+02 
---------------- Step     1810 ----- CPU =      0.8865 (sec) ----------------
PotEng   =  2.6147225e+04 Temp     =  1.5177172e+05 Press    =  2.2528407e+03 
---------------- Step     1820 ----- CPU =      0.8914 (sec) ----------------
PotEng   =  2.5646627e+04 Temp     =  1.4693088e+05 Press    =  1.4689965e+03 
---------------- Step     1830 ----- CPU =      0.8962 (sec) ----------------
PotEng   =  2.5697088e+04 Temp     =  1.4680253e+05 Press    =  5.9069753e+02 
---------------- Step     1840 ----- CPU =      0.9010 (sec) ----------------
PotEng   =  2.4879330e+04 Temp     =  1.6051172e+05 Press    =  2.5561415e+03 
---------------- Step     1850 ----- CPU =      0.9058 (sec) ----------------
PotEng   =  2.4554287e+04 Temp     =  1.5934395e+05 Press    =  2.4519415e+03 
---------------- Step     1860 ----- CPU =      0.9106 (sec) ----------------
PotEng   =  2.3045059e+04 Temp     =  1.3341581e+05 Press    = -1.2038914e+03 
---------------- Step     1870 ----- CPU =      0.9155 (sec) ----------------
PotEng   =  2.4615991e+04 Temp     =  1.6516666e+05 Press    =  3.7880340e+03 
---------------- Step     1880 ----- CPU =      0.9203 (sec) ----------------
PotEng   =  2.5326616e+04 Temp     =  1.4052824e+05 Press    = -1.7678338e+01 
---------------- Step     1890 ----- CPU =      0.9252 (sec) ----------------
PotEng   =  2.6255051e+04 Temp     =  1.4396750e+05 Press    =  5.4776290e+02 
---------------- Step     1900 ----- CPU =      0.9302 (sec) ----------------
PotEng   =  2.6166668e+04 Temp     =  1.4223629e+05 Press    =  8.2254462e+02 
---------------- Step     1910 ----- CPU =      0.9350 (sec) ----------------
PotEng   =  2.6015988e+04 Temp     =  1.6615223e+05 Press    =  5.7423753e+03 
---------------- Step     1920 ----- CPU =      0.9397 (sec) ----------------
PotEng   =  2.5443139e+04 Temp     =  1.5119996e+05 Press    =  3.8326269e+03 
---------------- Step     1930 ----- CPU =      0.9446 (sec) ----------------
PotEng   =  2.5665969e+04 Temp     =  1.4088743e+05 Press    =  2.3183938e+03 
---------------- Step     1940 ----- CPU =      0.9495 (sec) ----------------
PotEng   =  2.5238569e+04 Temp     =  1.6293812e+05 Press    =  6.0298986e+03 
---------------- Step     1950 ----- CPU =      0.9543 (sec) ----------------
PotEng   =  2.5786325e+04 Temp     =  1.4718999e+05 Press    =  3.3204466e+03 
---------------- Step     1960 ----- CPU =      0.9592 (sec) ----------------
PotEng   =  2.5650185e+04 Temp     =  1.5116772e+05 Press    =  4.5048901e+03 
---------------- Step     1970 ----- CPU =      0.9639 (sec) ----------------
PotEng   =  2.5995910e+04 Temp     =  1.6624664e+05 Press    =  6.2856392e+03 
---------------- Step     1980 ----- CPU =      0.9686 (sec) ----------------
PotEng   =  2.5134386e+04 Temp     =  1.5492960e+05 Press    =  4.7359322e+03 
---------------- Step     1990 ----- CPU =      0.9733 (sec) ----------------
PotEng   =  2.4260662e+04 Temp     =  1.5225808e+05 Press    =  4.3998813e+03 
---------------- Step     2000 ----- CPU =      0.9782 (sec) ----------------
PotEng   =  2.5566114e+04 Temp     =  2.5219530e+05 Press    =  1.9199917e+04 
Loop time of 0.978171 on 5 procs for 2000 steps with 180 atoms

Performance: 8.617 ns/day, 2.785 hours/ns, 2044.632 timesteps/s
497.5% CPU use with 1 MPI tasks x 5 OpenMP threads

MPI task timing breakdown:
Section |  min time  |  avg time  |  max time  |%varavg| %total
---------------------------------------------------------------
Pair    | 0.48276    | 0.48276    | 0.48276    |   0.0 | 49.35
Bond    | 0.00429    | 0.00429    | 0.00429    |   0.0 |  0.44
Kspace  | 0.35137    | 0.35137    | 0.35137    |   0.0 | 35.92
Neigh   | 0.0034627  | 0.0034627  | 0.0034627  |   0.0 |  0.35
Comm    | 0.0077731  | 0.0077731  | 0.0077731  |   0.0 |  0.79
Output  | 0.06648    | 0.06648    | 0.06648    |   0.0 |  6.80
Modify  | 0.060835   | 0.060835   | 0.060835   |   0.0 |  6.22
Other   |            | 0.0012     |            |       |  0.12

Nlocal:    180 ave 180 max 180 min
Histogram: 1 0 0 0 0 0 0 0 0 0
Nghost:    1066 ave 1066 max 1066 min
Histogram: 1 0 0 0 0 0 0 0 0 0
Neighs:    6820 ave 6820 max 6820 min
Histogram: 1 0 0 0 0 0 0 0 0 0

Total # of neighbors = 6820
Ave neighs/atom = 37.8889
Ave special neighs/atom = 3.5
Neighbor list builds = 32
Dangerous builds = 0
Total wall time: 0:00:02
