LAMMPS (22 Aug 2018)
OMP_NUM_THREADS environment is not set. Defaulting to 1 thread. (../comm.cpp:87)
  using 1 OpenMP thread(s) per MPI task
# LAMMPS INPUT FILE GENERATED BY SIM SUITE
clear
OMP_NUM_THREADS environment is not set. Defaulting to 1 thread. (../comm.cpp:87)
  using 1 OpenMP thread(s) per MPI task

# Initialize simulation box
package omp     5
set 5 OpenMP thread(s) per MPI task
using multi-threaded neighbor list subroutines
dimension       3
boundary        p p p
units           real
atom_style      full

# Set potential styles
pair_style      hybrid/overlay table2 spline 1000 coul/long  2.25000e+01
kspace_style    pppm 1.e-4
bond_style      harmonic

# Read molecule data and set initial velocities
read_data       /home/mnguyen/bin/PECG/test_PAAf0.5_implicitSol_NPT/tmpravh8E1.lammps.data
  orthogonal box = (-27 -27 -27) to (27 27 27)
  1 by 1 by 1 MPI processor grid
  reading atoms ...
  180 atoms
  scanning bonds ...
  2 = max bonds/atom
  reading bonds ...
  165 bonds
  2 = max # of 1-2 neighbors
  2 = max # of 1-3 neighbors
  4 = max # of 1-4 neighbors
  6 = max # of special neighbors
velocity        all create  1.5014e+05 94842 rot yes dist gaussian

# Assign potentials
pair_coeff      *     *     coul/long
pair_coeff          1     1 table2 /home/mnguyen/bin/PECG/test_PAAf0.5_implicitSol_NPT/tmpravh8E1.lammps.pair PairPotential4[0]11[0]
WARNING: 7 of 1000 force values in table are inconsistent with -dE/dr.
  Should only be flagged at inflection points (../pair_table2.cpp:484)
WARNING: 491 of 1000 distance values in table with relative error
  over 1e-06 to re-computed values (../pair_table2.cpp:493)
pair_coeff          1     2 table2 /home/mnguyen/bin/PECG/test_PAAf0.5_implicitSol_NPT/tmpravh8E1.lammps.pair PairPotential2[0]9[1]
WARNING: 41 of 1000 force values in table are inconsistent with -dE/dr.
  Should only be flagged at inflection points (../pair_table2.cpp:484)
WARNING: 491 of 1000 distance values in table with relative error
  over 1e-06 to re-computed values (../pair_table2.cpp:493)
pair_coeff          2     2 table2 /home/mnguyen/bin/PECG/test_PAAf0.5_implicitSol_NPT/tmpravh8E1.lammps.pair PairPotential1[0]8[2]
WARNING: 41 of 1000 force values in table are inconsistent with -dE/dr.
  Should only be flagged at inflection points (../pair_table2.cpp:484)
WARNING: 491 of 1000 distance values in table with relative error
  over 1e-06 to re-computed values (../pair_table2.cpp:493)
bond_coeff          1  2.9624e+02  3.5000e+00

special_bonds     lj 1.0 1.0 1.0 coul 0.0 0.0 1.0
  2 = max # of 1-2 neighbors
  2 = max # of 1-3 neighbors
  6 = max # of special neighbors



#Thermostat & time integration
timestep        4.8780e-02
thermo          10
thermo_style    custom pe temp press
thermo_modify   line multi norm no format float %14.7e

#minimization
minimize        1.e-4 0.0 100 100
WARNING: Using 'neigh_modify every 1 delay 0 check yes' setting during minimization (../min.cpp:168)
PPPM initialization ...
WARNING: System is not charge neutral, net charge = -90 (../kspace.cpp:302)
  using 12-bit tables for long-range coulomb (../kspace.cpp:321)
  G vector (1/distance) = 0.0997632
  grid = 8 8 8
  stencil order = 5
  estimated absolute RMS force accuracy = 0.0217008
  estimated relative force accuracy = 6.53515e-05
  using double precision FFTs
  3d grid and FFT values/proc = 2197 512
No /omp style for force computation currently active
Neighbor list info ...
  update every 1 steps, delay 0 steps, check yes
  max neighbors/atom: 2000, page size: 100000
  master list distance cutoff = 24.5
  ghost atom cutoff = 24.5
  binsize = 12.25, bins = 5 5 5
  2 neighbor lists, perpetual/occasional/extra = 2 0 0
  (1) pair table2, perpetual
      attributes: half, newton on, omp
      pair build: half/bin/newton/omp
      stencil: half/bin/3d/newton
      bin: standard
  (2) pair coul/long, perpetual, copy from (1)
      attributes: half, newton on, omp
      pair build: copy
      stencil: none
      bin: none
WARNING: Inconsistent image flags (../domain.cpp:782)
Per MPI rank memory allocation (min/avg/max) = 13.34 | 13.34 | 13.34 Mbytes
---------------- Step        0 ----- CPU =      0.0000 (sec) ----------------
PotEng   =  9.1727463e+03 Temp     =  1.5014000e+05 Press    =  3.1464870e+04 
---------------- Step       10 ----- CPU =      0.0143 (sec) ----------------
PotEng   =  3.4274828e+03 Temp     =  1.5014000e+05 Press    =  2.5109757e+04 
---------------- Step       20 ----- CPU =      0.0232 (sec) ----------------
PotEng   =  2.4426036e+03 Temp     =  1.5014000e+05 Press    =  2.5048047e+04 
---------------- Step       30 ----- CPU =      0.0294 (sec) ----------------
PotEng   =  1.5170236e+03 Temp     =  1.5014000e+05 Press    =  2.4671915e+04 
---------------- Step       38 ----- CPU =      0.0629 (sec) ----------------
PotEng   = -2.7468791e+04 Temp     =  1.5014000e+05 Press    =  2.4566925e+04 
Loop time of 0.0629295 on 5 procs for 38 steps with 180 atoms

498.2% CPU use with 1 MPI tasks x 5 OpenMP threads

Minimization stats:
  Stopping criterion = energy tolerance
  Energy initial, next-to-last, final = 
         9172.74634028     -27467.9411488     -27468.7905831
  Force two-norm initial, final = 3218.07 941479
  Force max component initial, final = 475.934 625605
  Final line search alpha, max atom move = 4.85487e-12 3.03723e-06
  Iterations, force evaluations = 38 91

MPI task timing breakdown:
Section |  min time  |  avg time  |  max time  |%varavg| %total
---------------------------------------------------------------
Pair    | 0.040437   | 0.040437   | 0.040437   |   0.0 | 64.26
Bond    | 0.00029702 | 0.00029702 | 0.00029702 |   0.0 |  0.47
Kspace  | 0.020422   | 0.020422   | 0.020422   |   0.0 | 32.45
Neigh   | 0.00030005 | 0.00030005 | 0.00030005 |   0.0 |  0.48
Comm    | 0.00048912 | 0.00048912 | 0.00048912 |   0.0 |  0.78
Output  | 2.364e-05  | 2.364e-05  | 2.364e-05  |   0.0 |  0.04
Modify  | 0.0004482  | 0.0004482  | 0.0004482  |   0.0 |  0.71
Other   |            | 0.0005126  |            |       |  0.81

Nlocal:    180 ave 180 max 180 min
Histogram: 1 0 0 0 0 0 0 0 0 0
Nghost:    1051 ave 1051 max 1051 min
Histogram: 1 0 0 0 0 0 0 0 0 0
Neighs:    6771 ave 6771 max 6771 min
Histogram: 1 0 0 0 0 0 0 0 0 0

Total # of neighbors = 6771
Ave neighs/atom = 37.6167
Ave special neighs/atom = 3.5
Neighbor list builds = 3
Dangerous builds = 0

#Set up integration parameters
fix             nptstat all npt temp  1.5014e+05  1.5014e+05  4.8780e+00 iso  1.4584e-06  1.4584e-06  4.8780e+01


#restart thermo
reset_timestep  0
thermo          10
thermo_style    custom pe temp press
WARNING: New thermo_style command, previous thermo_modify settings will be lost (../output.cpp:705)
thermo_modify   line multi norm no format float %14.7e
variable PRESS equal press
variable STEP equal step

#run equilibration
run             2000
PPPM initialization ...
  using 12-bit tables for long-range coulomb (../kspace.cpp:321)
  G vector (1/distance) = 0.0997632
  grid = 8 8 8
  stencil order = 5
  estimated absolute RMS force accuracy = 0.0217008
  estimated relative force accuracy = 6.53515e-05
  using double precision FFTs
  3d grid and FFT values/proc = 2197 512
No /omp style for force computation currently active
WARNING: Inconsistent image flags (../domain.cpp:782)
Per MPI rank memory allocation (min/avg/max) = 12.21 | 12.21 | 12.21 Mbytes
---------------- Step        0 ----- CPU =      0.0000 (sec) ----------------
PotEng   = -2.7468791e+04 Temp     =  1.5014000e+05 Press    =  2.4566925e+04 
---------------- Step       10 ----- CPU =      0.0167 (sec) ----------------
PotEng   =  1.0393881e+04 Temp     =  3.4768108e+05 Press    =  4.9920524e+04 
---------------- Step       20 ----- CPU =      0.0271 (sec) ----------------
PotEng   =  2.9586826e+04 Temp     =  2.9933144e+05 Press    =  3.0474021e+04 
---------------- Step       30 ----- CPU =      0.0346 (sec) ----------------
PotEng   =  6.0484045e+04 Temp     =  2.2882099e+05 Press    =  3.6185743e+03 
---------------- Step       40 ----- CPU =      0.0401 (sec) ----------------
PotEng   =  8.9588698e+04 Temp     =  1.6685984e+05 Press    = -2.0379738e+04 
---------------- Step       50 ----- CPU =      0.0456 (sec) ----------------
PotEng   =  1.0359475e+05 Temp     =  1.3709909e+05 Press    = -3.3124156e+04 
---------------- Step       60 ----- CPU =      0.0511 (sec) ----------------
PotEng   =  9.7803037e+04 Temp     =  1.4591731e+05 Press    = -3.1879281e+04 
---------------- Step       70 ----- CPU =      0.0565 (sec) ----------------
PotEng   =  7.7997654e+04 Temp     =  1.8108217e+05 Press    = -2.0327785e+04 
---------------- Step       80 ----- CPU =      0.0620 (sec) ----------------
PotEng   =  5.7188802e+04 Temp     =  2.1704235e+05 Press    = -6.7037747e+03 
---------------- Step       90 ----- CPU =      0.0675 (sec) ----------------
PotEng   =  4.6511448e+04 Temp     =  2.3210678e+05 Press    =  2.5091154e+03 
---------------- Step      100 ----- CPU =      0.0730 (sec) ----------------
PotEng   =  3.6057454e+04 Temp     =  2.4432875e+05 Press    =  9.4021049e+03 
---------------- Step      110 ----- CPU =      0.0785 (sec) ----------------
PotEng   =  3.8816564e+04 Temp     =  2.2997760e+05 Press    =  8.1424263e+03 
---------------- Step      120 ----- CPU =      0.0840 (sec) ----------------
PotEng   =  5.3995881e+04 Temp     =  1.9291206e+05 Press    =  2.7043712e+02 
---------------- Step      130 ----- CPU =      0.0895 (sec) ----------------
PotEng   =  6.7334831e+04 Temp     =  1.6144502e+05 Press    = -6.1371831e+03 
---------------- Step      140 ----- CPU =      0.0950 (sec) ----------------
PotEng   =  6.8639379e+04 Temp     =  1.5418321e+05 Press    = -5.6527579e+03 
---------------- Step      150 ----- CPU =      0.1004 (sec) ----------------
PotEng   =  6.1343551e+04 Temp     =  1.6368841e+05 Press    = -5.2418925e+01 
---------------- Step      160 ----- CPU =      0.1059 (sec) ----------------
PotEng   =  5.0434289e+04 Temp     =  1.7989564e+05 Press    =  7.3831183e+03 
---------------- Step      170 ----- CPU =      0.1114 (sec) ----------------
PotEng   =  3.2698120e+04 Temp     =  2.0803958e+05 Press    =  1.6628067e+04 
---------------- Step      180 ----- CPU =      0.1168 (sec) ----------------
PotEng   =  2.2600826e+04 Temp     =  2.2025044e+05 Press    =  1.9993346e+04 
---------------- Step      190 ----- CPU =      0.1223 (sec) ----------------
PotEng   =  3.0507174e+04 Temp     =  1.9790627e+05 Press    =  1.2595584e+04 
---------------- Step      200 ----- CPU =      0.1278 (sec) ----------------
PotEng   =  4.7321809e+04 Temp     =  1.5998118e+05 Press    = -2.5120222e+02 
---------------- Step      210 ----- CPU =      0.1333 (sec) ----------------
PotEng   =  5.9907449e+04 Temp     =  1.3183743e+05 Press    = -1.0959764e+04 
---------------- Step      220 ----- CPU =      0.1387 (sec) ----------------
PotEng   =  6.6236196e+04 Temp     =  1.1696487e+05 Press    = -1.7092091e+04 
---------------- Step      230 ----- CPU =      0.1442 (sec) ----------------
PotEng   =  6.1350993e+04 Temp     =  1.2398368e+05 Press    = -1.5654403e+04 
---------------- Step      240 ----- CPU =      0.1497 (sec) ----------------
PotEng   =  4.8010537e+04 Temp     =  1.4711740e+05 Press    = -8.1569856e+03 
---------------- Step      250 ----- CPU =      0.1552 (sec) ----------------
PotEng   =  3.4522272e+04 Temp     =  1.7030968e+05 Press    =  5.4896325e+02 
---------------- Step      260 ----- CPU =      0.1607 (sec) ----------------
PotEng   =  2.8107249e+04 Temp     =  1.7964374e+05 Press    =  6.0504704e+03 
---------------- Step      270 ----- CPU =      0.1662 (sec) ----------------
PotEng   =  2.8804167e+04 Temp     =  1.7502542e+05 Press    =  7.4453734e+03 
---------------- Step      280 ----- CPU =      0.1716 (sec) ----------------
PotEng   =  2.9293773e+04 Temp     =  1.7046832e+05 Press    =  8.1146616e+03 
---------------- Step      290 ----- CPU =      0.1771 (sec) ----------------
PotEng   =  2.8979875e+04 Temp     =  1.6716710e+05 Press    =  7.6455581e+03 
---------------- Step      300 ----- CPU =      0.1825 (sec) ----------------
PotEng   =  3.1230085e+04 Temp     =  1.5909446e+05 Press    =  4.9069096e+03 
---------------- Step      310 ----- CPU =      0.1880 (sec) ----------------
PotEng   =  3.3618401e+04 Temp     =  1.5184765e+05 Press    =  1.4073964e+03 
---------------- Step      320 ----- CPU =      0.1934 (sec) ----------------
PotEng   =  4.1258947e+04 Temp     =  1.3431913e+05 Press    = -2.9790512e+03 
---------------- Step      330 ----- CPU =      0.1989 (sec) ----------------
PotEng   =  4.7672140e+04 Temp     =  1.1998863e+05 Press    = -6.4380472e+03 
---------------- Step      340 ----- CPU =      0.2043 (sec) ----------------
PotEng   =  4.8073093e+04 Temp     =  1.1766889e+05 Press    = -6.2919706e+03 
---------------- Step      350 ----- CPU =      0.2098 (sec) ----------------
PotEng   =  4.1082803e+04 Temp     =  1.2965567e+05 Press    = -2.0206592e+03 
---------------- Step      360 ----- CPU =      0.2153 (sec) ----------------
PotEng   =  3.3875646e+04 Temp     =  1.4231537e+05 Press    =  2.7540938e+03 
---------------- Step      370 ----- CPU =      0.2208 (sec) ----------------
PotEng   =  2.8631755e+04 Temp     =  1.5137605e+05 Press    =  6.4828099e+03 
---------------- Step      380 ----- CPU =      0.2263 (sec) ----------------
PotEng   =  2.5666715e+04 Temp     =  1.5616762e+05 Press    =  8.2046972e+03 
---------------- Step      390 ----- CPU =      0.2318 (sec) ----------------
PotEng   =  3.1466657e+04 Temp     =  1.4443203e+05 Press    =  6.9252805e+03 
---------------- Step      400 ----- CPU =      0.2372 (sec) ----------------
PotEng   =  3.0294092e+04 Temp     =  1.4582527e+05 Press    =  7.0887689e+03 
---------------- Step      410 ----- CPU =      0.2427 (sec) ----------------
PotEng   =  3.1774579e+04 Temp     =  1.4237360e+05 Press    =  5.4163471e+03 
---------------- Step      420 ----- CPU =      0.2482 (sec) ----------------
PotEng   =  3.0435918e+04 Temp     =  1.4431739e+05 Press    =  4.2242863e+03 
---------------- Step      430 ----- CPU =      0.2536 (sec) ----------------
PotEng   =  2.8755261e+04 Temp     =  1.4705003e+05 Press    =  3.6780772e+03 
---------------- Step      440 ----- CPU =      0.2591 (sec) ----------------
PotEng   =  2.7720538e+04 Temp     =  1.4860678e+05 Press    =  2.5826023e+03 
---------------- Step      450 ----- CPU =      0.2645 (sec) ----------------
PotEng   =  2.9203336e+04 Temp     =  1.4549401e+05 Press    =  1.9165702e+02 
---------------- Step      460 ----- CPU =      0.2700 (sec) ----------------
PotEng   =  3.0939639e+04 Temp     =  1.4673903e+05 Press    = -2.3153304e+03 
---------------- Step      470 ----- CPU =      0.2753 (sec) ----------------
PotEng   =  3.9468325e+04 Temp     =  1.3093087e+05 Press    = -5.9945973e+03 
---------------- Step      480 ----- CPU =      0.2807 (sec) ----------------
PotEng   =  4.1119968e+04 Temp     =  1.2809463e+05 Press    = -6.8964227e+03 
---------------- Step      490 ----- CPU =      0.2861 (sec) ----------------
PotEng   =  3.9784218e+04 Temp     =  1.3123505e+05 Press    = -5.6176614e+03 
---------------- Step      500 ----- CPU =      0.2915 (sec) ----------------
PotEng   =  3.6739855e+04 Temp     =  1.3793378e+05 Press    = -2.6827048e+03 
---------------- Step      510 ----- CPU =      0.2968 (sec) ----------------
PotEng   =  3.2303386e+04 Temp     =  1.4751405e+05 Press    =  1.4717402e+03 
---------------- Step      520 ----- CPU =      0.3023 (sec) ----------------
PotEng   =  2.9559006e+04 Temp     =  1.5404393e+05 Press    =  4.9268023e+03 
---------------- Step      530 ----- CPU =      0.3077 (sec) ----------------
PotEng   =  3.1226038e+04 Temp     =  1.5227121e+05 Press    =  5.8484184e+03 
---------------- Step      540 ----- CPU =      0.3130 (sec) ----------------
PotEng   =  3.4863197e+04 Temp     =  1.5223702e+05 Press    =  6.4932517e+03 
---------------- Step      550 ----- CPU =      0.3183 (sec) ----------------
PotEng   =  3.2786365e+04 Temp     =  1.5731325e+05 Press    =  7.9119481e+03 
---------------- Step      560 ----- CPU =      0.3236 (sec) ----------------
PotEng   =  2.9496520e+04 Temp     =  1.6454869e+05 Press    =  8.8074327e+03 
---------------- Step      570 ----- CPU =      0.3288 (sec) ----------------
PotEng   =  3.0723261e+04 Temp     =  1.6305847e+05 Press    =  6.7958942e+03 
---------------- Step      580 ----- CPU =      0.3341 (sec) ----------------
PotEng   =  3.5428455e+04 Temp     =  1.5479175e+05 Press    =  2.7868540e+03 
---------------- Step      590 ----- CPU =      0.3394 (sec) ----------------
PotEng   =  3.8883838e+04 Temp     =  1.4876911e+05 Press    = -4.9444358e+02 
---------------- Step      600 ----- CPU =      0.3446 (sec) ----------------
PotEng   =  3.9265089e+04 Temp     =  1.4854059e+05 Press    = -1.7655220e+03 
---------------- Step      610 ----- CPU =      0.3499 (sec) ----------------
PotEng   =  3.5965207e+04 Temp     =  1.5524712e+05 Press    = -7.2401813e+02 
---------------- Step      620 ----- CPU =      0.3552 (sec) ----------------
PotEng   =  3.0510215e+04 Temp     =  1.6588560e+05 Press    =  1.6366837e+03 
---------------- Step      630 ----- CPU =      0.3605 (sec) ----------------
PotEng   =  2.9556663e+04 Temp     =  1.6776762e+05 Press    =  1.9698864e+03 
---------------- Step      640 ----- CPU =      0.3658 (sec) ----------------
PotEng   =  3.7067389e+04 Temp     =  1.5345828e+05 Press    = -1.6547930e+03 
---------------- Step      650 ----- CPU =      0.3712 (sec) ----------------
PotEng   =  4.9486505e+04 Temp     =  1.2997880e+05 Press    = -7.3851351e+03 
---------------- Step      660 ----- CPU =      0.3763 (sec) ----------------
PotEng   =  5.7326992e+04 Temp     =  1.1546556e+05 Press    = -1.0524268e+04 
---------------- Step      670 ----- CPU =      0.3815 (sec) ----------------
PotEng   =  5.3402392e+04 Temp     =  1.2187626e+05 Press    = -7.8460222e+03 
---------------- Step      680 ----- CPU =      0.3867 (sec) ----------------
PotEng   =  4.2850082e+04 Temp     =  1.4617883e+05 Press    =  7.1538818e+01 
---------------- Step      690 ----- CPU =      0.3920 (sec) ----------------
PotEng   =  3.2374897e+04 Temp     =  1.6728642e+05 Press    =  7.8882789e+03 
---------------- Step      700 ----- CPU =      0.3972 (sec) ----------------
PotEng   =  2.4913029e+04 Temp     =  1.8238362e+05 Press    =  1.2948891e+04 
---------------- Step      710 ----- CPU =      0.4024 (sec) ----------------
PotEng   =  1.6748799e+04 Temp     =  1.9726206e+05 Press    =  1.5882794e+04 
---------------- Step      720 ----- CPU =      0.4077 (sec) ----------------
PotEng   =  2.0237183e+04 Temp     =  1.9044015e+05 Press    =  1.3121544e+04 
---------------- Step      730 ----- CPU =      0.4130 (sec) ----------------
PotEng   =  2.6804964e+04 Temp     =  1.7634767e+05 Press    =  7.2683597e+03 
---------------- Step      740 ----- CPU =      0.4183 (sec) ----------------
PotEng   =  3.3955660e+04 Temp     =  1.6087026e+05 Press    =  5.3757748e+02 
---------------- Step      750 ----- CPU =      0.4235 (sec) ----------------
PotEng   =  4.0285762e+04 Temp     =  1.4693557e+05 Press    = -5.3140666e+03 
---------------- Step      760 ----- CPU =      0.4286 (sec) ----------------
PotEng   =  4.2700761e+04 Temp     =  1.4063891e+05 Press    = -8.2666182e+03 
---------------- Step      770 ----- CPU =      0.4337 (sec) ----------------
PotEng   =  4.1995592e+04 Temp     =  1.4040619e+05 Press    = -7.6722702e+03 
---------------- Step      780 ----- CPU =      0.4389 (sec) ----------------
PotEng   =  3.7390390e+04 Temp     =  1.4760609e+05 Press    = -4.1517762e+03 
---------------- Step      790 ----- CPU =      0.4439 (sec) ----------------
PotEng   =  3.2037227e+04 Temp     =  1.5610364e+05 Press    =  1.3322030e+02 
---------------- Step      800 ----- CPU =      0.4489 (sec) ----------------
PotEng   =  2.9095859e+04 Temp     =  1.5988602e+05 Press    =  3.1246822e+03 
---------------- Step      810 ----- CPU =      0.4541 (sec) ----------------
PotEng   =  2.7223372e+04 Temp     =  1.6137897e+05 Press    =  4.6729981e+03 
---------------- Step      820 ----- CPU =      0.4591 (sec) ----------------
PotEng   =  2.7656491e+04 Temp     =  1.5838562e+05 Press    =  4.1894456e+03 
---------------- Step      830 ----- CPU =      0.4642 (sec) ----------------
PotEng   =  3.0266326e+04 Temp     =  1.5129421e+05 Press    =  1.9088086e+03 
---------------- Step      840 ----- CPU =      0.4691 (sec) ----------------
PotEng   =  3.4766922e+04 Temp     =  1.4091695e+05 Press    = -1.4869521e+03 
---------------- Step      850 ----- CPU =      0.4741 (sec) ----------------
PotEng   =  3.8032711e+04 Temp     =  1.3354735e+05 Press    = -3.9186099e+03 
---------------- Step      860 ----- CPU =      0.4790 (sec) ----------------
PotEng   =  3.7107095e+04 Temp     =  1.3483576e+05 Press    = -4.0138536e+03 
---------------- Step      870 ----- CPU =      0.4839 (sec) ----------------
PotEng   =  3.3274350e+04 Temp     =  1.4101715e+05 Press    = -2.2231298e+03 
---------------- Step      880 ----- CPU =      0.4889 (sec) ----------------
PotEng   =  2.4856427e+04 Temp     =  1.5632552e+05 Press    =  8.3173230e+02 
---------------- Step      890 ----- CPU =      0.4941 (sec) ----------------
PotEng   =  2.6644642e+04 Temp     =  1.6959223e+05 Press    =  4.7095835e+03 
---------------- Step      900 ----- CPU =      0.4992 (sec) ----------------
PotEng   =  2.4485662e+04 Temp     =  1.7186319e+05 Press    =  5.9305835e+03 
---------------- Step      910 ----- CPU =      0.5042 (sec) ----------------
PotEng   =  2.2692062e+04 Temp     =  1.7653373e+05 Press    =  6.8773924e+03 
---------------- Step      920 ----- CPU =      0.5093 (sec) ----------------
PotEng   =  2.3125190e+04 Temp     =  1.7278391e+05 Press    =  5.6517273e+03 
---------------- Step      930 ----- CPU =      0.5144 (sec) ----------------
PotEng   =  2.7257176e+04 Temp     =  1.6188554e+05 Press    =  2.3634027e+03 
---------------- Step      940 ----- CPU =      0.5195 (sec) ----------------
PotEng   =  3.3232384e+04 Temp     =  1.4782820e+05 Press    = -1.7350610e+03 
---------------- Step      950 ----- CPU =      0.5243 (sec) ----------------
PotEng   =  4.0267259e+04 Temp     =  1.4329253e+05 Press    = -3.5913368e+03 
---------------- Step      960 ----- CPU =      0.5290 (sec) ----------------
PotEng   =  4.1366859e+04 Temp     =  1.3918533e+05 Press    = -4.2821391e+03 
---------------- Step      970 ----- CPU =      0.5337 (sec) ----------------
PotEng   =  3.8920386e+04 Temp     =  1.4207191e+05 Press    = -2.6471402e+03 
---------------- Step      980 ----- CPU =      0.5385 (sec) ----------------
PotEng   =  3.4302095e+04 Temp     =  1.4917053e+05 Press    =  7.3073038e+02 
---------------- Step      990 ----- CPU =      0.5432 (sec) ----------------
PotEng   =  2.9654167e+04 Temp     =  1.5630759e+05 Press    =  4.0303651e+03 
---------------- Step     1000 ----- CPU =      0.5480 (sec) ----------------
PotEng   =  2.7233267e+04 Temp     =  1.5914539e+05 Press    =  5.6149115e+03 
---------------- Step     1010 ----- CPU =      0.5528 (sec) ----------------
PotEng   =  2.7698375e+04 Temp     =  1.5647692e+05 Press    =  5.3550742e+03 
---------------- Step     1020 ----- CPU =      0.5575 (sec) ----------------
PotEng   =  2.7723097e+04 Temp     =  1.5461101e+05 Press    =  4.6431570e+03 
---------------- Step     1030 ----- CPU =      0.5622 (sec) ----------------
PotEng   =  2.5863752e+04 Temp     =  1.5622914e+05 Press    =  3.9582642e+03 
---------------- Step     1040 ----- CPU =      0.5669 (sec) ----------------
PotEng   =  2.4014359e+04 Temp     =  1.5793892e+05 Press    =  3.2554982e+03 
---------------- Step     1050 ----- CPU =      0.5716 (sec) ----------------
PotEng   =  2.4431878e+04 Temp     =  1.5501376e+05 Press    =  2.2899695e+03 
---------------- Step     1060 ----- CPU =      0.5763 (sec) ----------------
PotEng   =  2.5506609e+04 Temp     =  1.5109168e+05 Press    =  1.3743665e+03 
---------------- Step     1070 ----- CPU =      0.5809 (sec) ----------------
PotEng   =  2.6710054e+04 Temp     =  1.4707631e+05 Press    =  7.3923412e+02 
---------------- Step     1080 ----- CPU =      0.5856 (sec) ----------------
PotEng   =  2.6838134e+04 Temp     =  1.4523246e+05 Press    =  4.1563519e+02 
---------------- Step     1090 ----- CPU =      0.5903 (sec) ----------------
PotEng   =  2.8270343e+04 Temp     =  1.4118831e+05 Press    = -1.5432088e+02 
---------------- Step     1100 ----- CPU =      0.5949 (sec) ----------------
PotEng   =  2.9480190e+04 Temp     =  1.5424234e+05 Press    =  1.4017770e+03 
---------------- Step     1110 ----- CPU =      0.5995 (sec) ----------------
PotEng   =  3.1118682e+04 Temp     =  1.4983583e+05 Press    =  6.1818517e+02 
---------------- Step     1120 ----- CPU =      0.6042 (sec) ----------------
PotEng   =  3.1391781e+04 Temp     =  1.4743773e+05 Press    = -8.7137647e+02 
---------------- Step     1130 ----- CPU =      0.6088 (sec) ----------------
PotEng   =  3.8252492e+04 Temp     =  1.3417392e+05 Press    = -3.2882592e+03 
---------------- Step     1140 ----- CPU =      0.6135 (sec) ----------------
PotEng   =  4.0805074e+04 Temp     =  1.2881577e+05 Press    = -4.5247968e+03 
---------------- Step     1150 ----- CPU =      0.6181 (sec) ----------------
PotEng   =  3.7926771e+04 Temp     =  1.3408929e+05 Press    = -3.7366726e+03 
---------------- Step     1160 ----- CPU =      0.6227 (sec) ----------------
PotEng   =  3.7296607e+04 Temp     =  2.5553672e+05 Press    =  1.2185697e+04 
---------------- Step     1170 ----- CPU =      0.6274 (sec) ----------------
PotEng   =  3.7848470e+04 Temp     =  2.4954504e+05 Press    =  9.9960135e+03 
---------------- Step     1180 ----- CPU =      0.6322 (sec) ----------------
PotEng   =  4.6784601e+04 Temp     =  2.2514850e+05 Press    =  3.1472546e+03 
---------------- Step     1190 ----- CPU =      0.6371 (sec) ----------------
PotEng   =  5.8949970e+04 Temp     =  2.0644366e+05 Press    = -3.7118865e+03 
---------------- Step     1200 ----- CPU =      0.6420 (sec) ----------------
PotEng   =  6.9733497e+04 Temp     =  1.7948646e+05 Press    = -9.8650777e+03 
---------------- Step     1210 ----- CPU =      0.6467 (sec) ----------------
PotEng   =  6.9381351e+04 Temp     =  1.7580365e+05 Press    = -1.0870690e+04 
---------------- Step     1220 ----- CPU =      0.6515 (sec) ----------------
PotEng   =  5.8988691e+04 Temp     =  1.9254646e+05 Press    = -7.3873411e+03 
---------------- Step     1230 ----- CPU =      0.6564 (sec) ----------------
PotEng   =  5.0761841e+04 Temp     =  2.0395588e+05 Press    = -3.3056470e+03 
---------------- Step     1240 ----- CPU =      0.6612 (sec) ----------------
PotEng   =  4.5303988e+04 Temp     =  2.0893167e+05 Press    = -3.7704207e+02 
---------------- Step     1250 ----- CPU =      0.6660 (sec) ----------------
PotEng   =  4.2675791e+04 Temp     =  2.0865737e+05 Press    =  1.5136103e+03 
---------------- Step     1260 ----- CPU =      0.6706 (sec) ----------------
PotEng   =  3.7619759e+04 Temp     =  9.5249181e+05 Press    =  9.0782341e+04 
---------------- Step     1270 ----- CPU =      0.6752 (sec) ----------------
PotEng   =  7.4568130e+04 Temp     =  8.0174990e+05 Press    =  6.0825497e+04 
---------------- Step     1280 ----- CPU =      0.6799 (sec) ----------------
PotEng   =  1.6332047e+05 Temp     =  5.7735702e+05 Press    =  1.0948188e+04 
---------------- Step     1290 ----- CPU =      0.6844 (sec) ----------------
PotEng   =  2.5477287e+05 Temp     =  3.6837613e+05 Press    = -3.5400709e+04 
---------------- Step     1300 ----- CPU =      0.6890 (sec) ----------------
PotEng   =  2.9872180e+05 Temp     =  2.6469502e+05 Press    = -5.7242955e+04 
---------------- Step     1310 ----- CPU =      0.6938 (sec) ----------------
PotEng   =  2.7696926e+05 Temp     =  2.8865204e+05 Press    = -4.8957849e+04 
---------------- Step     1320 ----- CPU =      0.6984 (sec) ----------------
PotEng   =  2.1078143e+05 Temp     =  3.9009074e+05 Press    = -2.0680636e+04 
---------------- Step     1330 ----- CPU =      0.7031 (sec) ----------------
PotEng   =  1.4230687e+05 Temp     =  4.8299093e+05 Press    =  7.7765260e+03 
---------------- Step     1340 ----- CPU =      0.7078 (sec) ----------------
PotEng   =  1.0293883e+05 Temp     =  5.1026261e+05 Press    =  2.2240292e+04 
---------------- Step     1350 ----- CPU =      0.7125 (sec) ----------------
PotEng   =  7.1480358e+04 Temp     =  5.2158495e+05 Press    =  2.7598054e+04 
---------------- Step     1360 ----- CPU =      0.7171 (sec) ----------------
PotEng   =  9.4173868e+04 Temp     =  4.5153697e+05 Press    =  1.4694734e+04 
---------------- Step     1370 ----- CPU =      0.7218 (sec) ----------------
PotEng   =  1.3887755e+05 Temp     =  3.2997511e+05 Press    = -8.8834620e+03 
---------------- Step     1380 ----- CPU =      0.7266 (sec) ----------------
PotEng   =  1.7181782e+05 Temp     =  2.4425212e+05 Press    = -2.6166116e+04 
---------------- Step     1390 ----- CPU =      0.7312 (sec) ----------------
PotEng   =  1.7594802e+05 Temp     =  2.1989836e+05 Press    = -2.9522927e+04 
---------------- Step     1400 ----- CPU =      0.7358 (sec) ----------------
PotEng   =  1.5416144e+05 Temp     =  2.4630383e+05 Press    = -2.1169127e+04 
---------------- Step     1410 ----- CPU =      0.7418 (sec) ----------------
PotEng   =  1.0733188e+05 Temp     =  3.1419395e+05 Press    = -4.3540328e+03 
---------------- Step     1420 ----- CPU =      0.7466 (sec) ----------------
PotEng   =  7.4711791e+04 Temp     =  4.7488310e+05 Press    =  2.2901740e+04 
---------------- Step     1430 ----- CPU =      0.7512 (sec) ----------------
PotEng   =  6.2514969e+04 Temp     =  4.5275163e+05 Press    =  2.3994777e+04 
---------------- Step     1440 ----- CPU =      0.7559 (sec) ----------------
PotEng   =  7.8398805e+04 Temp     =  3.8211035e+05 Press    =  1.4301908e+04 
---------------- Step     1450 ----- CPU =      0.7604 (sec) ----------------
PotEng   =  9.1332878e+04 Temp     =  3.2367884e+05 Press    =  3.7699936e+03 
---------------- Step     1460 ----- CPU =      0.7656 (sec) ----------------
PotEng   =  1.0151173e+05 Temp     =  2.7786715e+05 Press    = -4.7288398e+03 
---------------- Step     1470 ----- CPU =      0.7702 (sec) ----------------
PotEng   =  1.0060990e+05 Temp     =  2.6315707e+05 Press    = -7.7102228e+03 
---------------- Step     1480 ----- CPU =      0.7749 (sec) ----------------
PotEng   =  9.2872905e+04 Temp     =  2.6234357e+05 Press    = -6.5536700e+03 
---------------- Step     1490 ----- CPU =      0.7795 (sec) ----------------
PotEng   =  8.5221822e+04 Temp     =  2.6037373e+05 Press    = -4.0104532e+03 
---------------- Step     1500 ----- CPU =      0.7842 (sec) ----------------
PotEng   =  7.9737733e+04 Temp     =  2.5078319e+05 Press    = -3.2082441e+03 
---------------- Step     1510 ----- CPU =      0.7888 (sec) ----------------
PotEng   =  7.8103790e+04 Temp     =  2.3960561e+05 Press    = -3.2659304e+03 
---------------- Step     1520 ----- CPU =      0.7934 (sec) ----------------
PotEng   =  6.3032176e+04 Temp     =  2.4945321e+05 Press    =  3.9307457e+02 
---------------- Step     1530 ----- CPU =      0.7980 (sec) ----------------
PotEng   =  5.3025670e+04 Temp     =  2.5569541e+05 Press    =  2.9567061e+03 
---------------- Step     1540 ----- CPU =      0.8026 (sec) ----------------
PotEng   =  5.4440076e+04 Temp     =  2.3469157e+05 Press    =  6.7904090e+02 
---------------- Step     1550 ----- CPU =      0.8073 (sec) ----------------
PotEng   =  6.0513474e+04 Temp     =  2.0715989e+05 Press    = -3.1182530e+03 
---------------- Step     1560 ----- CPU =      0.8119 (sec) ----------------
PotEng   =  6.5894316e+04 Temp     =  1.8375184e+05 Press    = -5.4013135e+03 
---------------- Step     1570 ----- CPU =      0.8168 (sec) ----------------
PotEng   =  6.7553034e+04 Temp     =  1.6941816e+05 Press    = -5.7759894e+03 
---------------- Step     1580 ----- CPU =      0.8214 (sec) ----------------
PotEng   =  6.4063503e+04 Temp     =  1.6568251e+05 Press    = -3.8254148e+03 
---------------- Step     1590 ----- CPU =      0.8260 (sec) ----------------
PotEng   =  5.5879282e+04 Temp     =  1.7297917e+05 Press    =  6.3639294e+02 
---------------- Step     1600 ----- CPU =      0.8306 (sec) ----------------
PotEng   =  4.1791806e+04 Temp     =  1.9066844e+05 Press    =  6.0731433e+03 
---------------- Step     1610 ----- CPU =      0.8351 (sec) ----------------
PotEng   =  3.1324099e+04 Temp     =  1.9948396e+05 Press    =  8.8294507e+03 
---------------- Step     1620 ----- CPU =      0.8397 (sec) ----------------
PotEng   =  3.0446291e+04 Temp     =  1.9463347e+05 Press    =  7.4714974e+03 
---------------- Step     1630 ----- CPU =      0.8443 (sec) ----------------
PotEng   =  3.9110942e+04 Temp     =  1.8072295e+05 Press    =  4.4478781e+03 
---------------- Step     1640 ----- CPU =      0.8491 (sec) ----------------
PotEng   =  3.9043263e+04 Temp     =  1.7184212e+05 Press    =  1.0966340e+03 
---------------- Step     1650 ----- CPU =      0.8536 (sec) ----------------
PotEng   =  4.9530478e+04 Temp     =  4.7746277e+05 Press    =  3.0608290e+04 
---------------- Step     1660 ----- CPU =      0.8581 (sec) ----------------
PotEng   =  6.7504200e+04 Temp     =  4.0164953e+05 Press    =  1.5067904e+04 
---------------- Step     1670 ----- CPU =      0.8627 (sec) ----------------
PotEng   =  1.0258782e+05 Temp     =  3.3038287e+05 Press    = -2.2486169e+03 
---------------- Step     1680 ----- CPU =      0.8672 (sec) ----------------
PotEng   =  1.3552128e+05 Temp     =  2.4203214e+05 Press    = -1.9586623e+04 
---------------- Step     1690 ----- CPU =      0.8717 (sec) ----------------
PotEng   =  1.5013807e+05 Temp     =  1.9684314e+05 Press    = -2.7196719e+04 
---------------- Step     1700 ----- CPU =      0.8762 (sec) ----------------
PotEng   =  1.3971307e+05 Temp     =  2.0207859e+05 Press    = -2.3711094e+04 
---------------- Step     1710 ----- CPU =      0.8814 (sec) ----------------
PotEng   =  1.1553032e+05 Temp     =  2.3216107e+05 Press    = -1.3398061e+04 
---------------- Step     1720 ----- CPU =      0.8859 (sec) ----------------
PotEng   =  8.9119782e+04 Temp     =  2.6485729e+05 Press    = -2.3814754e+03 
---------------- Step     1730 ----- CPU =      0.8904 (sec) ----------------
PotEng   =  7.5305374e+04 Temp     =  2.7526691e+05 Press    =  4.8135824e+03 
---------------- Step     1740 ----- CPU =      0.8949 (sec) ----------------
PotEng   =  5.8638443e+04 Temp     =  2.8434863e+05 Press    =  9.8629115e+03 
---------------- Step     1750 ----- CPU =      0.8993 (sec) ----------------
PotEng   =  5.2060341e+04 Temp     =  2.7364761e+05 Press    =  1.0151670e+04 
---------------- Step     1760 ----- CPU =      0.9038 (sec) ----------------
PotEng   =  5.8397090e+04 Temp     =  2.4056571e+05 Press    =  5.7863273e+03 
---------------- Step     1770 ----- CPU =      0.9083 (sec) ----------------
PotEng   =  6.6512494e+04 Temp     =  2.0779935e+05 Press    =  1.0411053e+03 
---------------- Step     1780 ----- CPU =      0.9131 (sec) ----------------
PotEng   =  6.9408904e+04 Temp     =  1.9492654e+05 Press    = -9.7413823e+02 
---------------- Step     1790 ----- CPU =      0.9176 (sec) ----------------
PotEng   =  7.2841712e+04 Temp     =  1.7579295e+05 Press    = -3.1105112e+03 
---------------- Step     1800 ----- CPU =      0.9221 (sec) ----------------
PotEng   =  6.3918552e+04 Temp     =  1.8132011e+05 Press    = -1.3988929e+03 
---------------- Step     1810 ----- CPU =      0.9266 (sec) ----------------
PotEng   =  4.8713730e+04 Temp     =  1.9818723e+05 Press    =  1.5461686e+03 
---------------- Step     1820 ----- CPU =      0.9310 (sec) ----------------
PotEng   =  4.9120945e+04 Temp     =  1.8589192e+05 Press    =  6.2841780e+02 
---------------- Step     1830 ----- CPU =      0.9355 (sec) ----------------
PotEng   =  5.6481045e+04 Temp     =  1.6182284e+05 Press    = -2.8412399e+03 
---------------- Step     1840 ----- CPU =      0.9400 (sec) ----------------
PotEng   =  6.5334402e+04 Temp     =  1.3710590e+05 Press    = -6.1823877e+03 
---------------- Step     1850 ----- CPU =      0.9449 (sec) ----------------
PotEng   =  6.5136503e+04 Temp     =  1.3099904e+05 Press    = -6.1219565e+03 
---------------- Step     1860 ----- CPU =      0.9493 (sec) ----------------
PotEng   =  6.0760921e+04 Temp     =  1.3347296e+05 Press    = -4.2714810e+03 
---------------- Step     1870 ----- CPU =      0.9538 (sec) ----------------
PotEng   =  4.5197119e+04 Temp     =  1.5695165e+05 Press    =  9.1930494e+02 
---------------- Step     1880 ----- CPU =      0.9582 (sec) ----------------
PotEng   =  3.1788652e+04 Temp     =  1.7548720e+05 Press    =  5.2700881e+03 
---------------- Step     1890 ----- CPU =      0.9625 (sec) ----------------
PotEng   =  2.9846331e+04 Temp     =  1.7199768e+05 Press    =  5.2737239e+03 
---------------- Step     1900 ----- CPU =      0.9669 (sec) ----------------
PotEng   =  3.8686026e+04 Temp     =  1.4870462e+05 Press    =  1.4592848e+03 
---------------- Step     1910 ----- CPU =      0.9715 (sec) ----------------
PotEng   =  4.9571745e+04 Temp     =  1.2302053e+05 Press    = -2.7194348e+03 
---------------- Step     1920 ----- CPU =      0.9762 (sec) ----------------
PotEng   =  5.3484233e+04 Temp     =  1.1174778e+05 Press    = -4.1122980e+03 
---------------- Step     1930 ----- CPU =      0.9806 (sec) ----------------
PotEng   =  4.8179052e+04 Temp     =  1.1853530e+05 Press    = -2.0781431e+03 
---------------- Step     1940 ----- CPU =      0.9850 (sec) ----------------
PotEng   =  3.8731895e+04 Temp     =  1.3461876e+05 Press    =  2.1155379e+03 
---------------- Step     1950 ----- CPU =      0.9895 (sec) ----------------
PotEng   =  2.1608908e+04 Temp     =  1.6426015e+05 Press    =  7.2619517e+03 
---------------- Step     1960 ----- CPU =      0.9939 (sec) ----------------
PotEng   =  1.9056641e+04 Temp     =  1.7580687e+05 Press    =  9.6032859e+03 
---------------- Step     1970 ----- CPU =      0.9983 (sec) ----------------
PotEng   =  2.6431262e+04 Temp     =  1.5755917e+05 Press    =  6.5908347e+03 
---------------- Step     1980 ----- CPU =      1.0027 (sec) ----------------
PotEng   =  3.4081591e+04 Temp     =  1.3921988e+05 Press    =  2.1478319e+03 
---------------- Step     1990 ----- CPU =      1.0075 (sec) ----------------
PotEng   =  4.2182698e+04 Temp     =  1.2229328e+05 Press    = -1.2829961e+03 
---------------- Step     2000 ----- CPU =      1.0121 (sec) ----------------
PotEng   =  4.3886228e+04 Temp     =  1.1673199e+05 Press    = -3.1808425e+03 
Loop time of 1.0121 on 5 procs for 2000 steps with 180 atoms

Performance: 8.328 ns/day, 2.882 hours/ns, 1976.082 timesteps/s
496.3% CPU use with 1 MPI tasks x 5 OpenMP threads

MPI task timing breakdown:
Section |  min time  |  avg time  |  max time  |%varavg| %total
---------------------------------------------------------------
Pair    | 0.39757    | 0.39757    | 0.39757    |   0.0 | 39.28
Bond    | 0.0064001  | 0.0064001  | 0.0064001  |   0.0 |  0.63
Kspace  | 0.3585     | 0.3585     | 0.3585     |   0.0 | 35.42
Neigh   | 0.019808   | 0.019808   | 0.019808   |   0.0 |  1.96
Comm    | 0.010986   | 0.010986   | 0.010986   |   0.0 |  1.09
Output  | 0.00092718 | 0.00092718 | 0.00092718 |   0.0 |  0.09
Modify  | 0.21644    | 0.21644    | 0.21644    |   0.0 | 21.39
Other   |            | 0.001461   |            |       |  0.14

Nlocal:    180 ave 180 max 180 min
Histogram: 1 0 0 0 0 0 0 0 0 0
Nghost:    837 ave 837 max 837 min
Histogram: 1 0 0 0 0 0 0 0 0 0
Neighs:    3815 ave 3815 max 3815 min
Histogram: 1 0 0 0 0 0 0 0 0 0

Total # of neighbors = 3815
Ave neighs/atom = 21.1944
Ave special neighs/atom = 3.5
Neighbor list builds = 199
Dangerous builds = 197

#restart thermo
reset_timestep  0
thermo          10
thermo_style    custom pe temp press
WARNING: New thermo_style command, previous thermo_modify settings will be lost (../output.cpp:705)
thermo_modify   line multi norm no format float %14.7e

#setup trajectory output
dump            myDump all custom 10 /home/mnguyen/bin/PECG/test_PAAf0.5_implicitSol_NPT/tmpravh8E1.trj.lammpstrj id type x y z mol
dump_modify     myDump element A- A
dump_modify     myDump sort id
dump_modify     myDump format line  "%d %d %14.7e %14.7e %14.7e %d"

#run production
run             2000
PPPM initialization ...
  using 12-bit tables for long-range coulomb (../kspace.cpp:321)
  G vector (1/distance) = 0.0985945
  grid = 9 9 9
  stencil order = 5
  estimated absolute RMS force accuracy = 0.0196089
  estimated relative force accuracy = 5.90516e-05
  using double precision FFTs
  3d grid and FFT values/proc = 2744 729
No /omp style for force computation currently active
WARNING: Inconsistent image flags (../domain.cpp:782)
Per MPI rank memory allocation (min/avg/max) = 13.52 | 13.52 | 13.52 Mbytes
---------------- Step        0 ----- CPU =      0.0000 (sec) ----------------
PotEng   =  4.3884231e+04 Temp     =  1.1673199e+05 Press    = -3.1718276e+03 
---------------- Step       10 ----- CPU =      0.0156 (sec) ----------------
PotEng   =  4.0055936e+04 Temp     =  1.2209640e+05 Press    = -2.7986271e+03 
---------------- Step       20 ----- CPU =      0.0254 (sec) ----------------
PotEng   =  3.4916701e+04 Temp     =  1.3355360e+05 Press    =  1.4676698e+01 
---------------- Step       30 ----- CPU =      0.0324 (sec) ----------------
PotEng   =  2.6921605e+04 Temp     =  1.4710611e+05 Press    =  3.3994933e+03 
---------------- Step       40 ----- CPU =      0.0379 (sec) ----------------
PotEng   =  2.2396804e+04 Temp     =  1.5410622e+05 Press    =  5.4588176e+03 
---------------- Step       50 ----- CPU =      0.0433 (sec) ----------------
PotEng   =  2.3046410e+04 Temp     =  1.5134770e+05 Press    =  5.3247068e+03 
---------------- Step       60 ----- CPU =      0.0493 (sec) ----------------
PotEng   =  2.8132885e+04 Temp     =  1.8535554e+05 Press    =  7.4449979e+03 
---------------- Step       70 ----- CPU =      0.0547 (sec) ----------------
PotEng   =  3.6747157e+04 Temp     =  1.6640425e+05 Press    =  2.8015300e+03 
---------------- Step       80 ----- CPU =      0.0601 (sec) ----------------
PotEng   =  4.8419937e+04 Temp     =  1.4181588e+05 Press    = -3.0346344e+03 
---------------- Step       90 ----- CPU =      0.0655 (sec) ----------------
PotEng   =  5.9405384e+04 Temp     =  1.1918497e+05 Press    = -8.1718564e+03 
---------------- Step      100 ----- CPU =      0.0709 (sec) ----------------
PotEng   =  6.1962071e+04 Temp     =  1.1311109e+05 Press    = -9.8691116e+03 
---------------- Step      110 ----- CPU =      0.0763 (sec) ----------------
PotEng   =  5.8723646e+04 Temp     =  1.8244135e+05 Press    = -1.8267059e+03 
---------------- Step      120 ----- CPU =      0.0820 (sec) ----------------
PotEng   =  5.0402321e+04 Temp     =  1.9546536e+05 Press    =  1.1045722e+03 
---------------- Step      130 ----- CPU =      0.0873 (sec) ----------------
PotEng   =  4.4163009e+04 Temp     =  2.0317610e+05 Press    =  2.7041565e+03 
---------------- Step      140 ----- CPU =      0.0927 (sec) ----------------
PotEng   =  4.9091405e+04 Temp     =  1.8884667e+05 Press    =  6.7093399e+02 
---------------- Step      150 ----- CPU =      0.0981 (sec) ----------------
PotEng   =  5.6842922e+04 Temp     =  1.6888990e+05 Press    = -2.7383200e+03 
---------------- Step      160 ----- CPU =      0.1035 (sec) ----------------
PotEng   =  6.3129333e+04 Temp     =  1.5202848e+05 Press    = -5.7747832e+03 
---------------- Step      170 ----- CPU =      0.1089 (sec) ----------------
PotEng   =  6.3806045e+04 Temp     =  1.4615822e+05 Press    = -6.7907314e+03 
---------------- Step      180 ----- CPU =      0.1147 (sec) ----------------
PotEng   =  5.8902496e+04 Temp     =  1.5092109e+05 Press    = -5.6940228e+03 
---------------- Step      190 ----- CPU =      0.1201 (sec) ----------------
PotEng   =  5.2501954e+04 Temp     =  1.5836681e+05 Press    = -3.7814510e+03 
---------------- Step      200 ----- CPU =      0.1254 (sec) ----------------
PotEng   =  4.7819969e+04 Temp     =  1.6234215e+05 Press    = -2.1562106e+03 
---------------- Step      210 ----- CPU =      0.1308 (sec) ----------------
PotEng   =  4.6160550e+04 Temp     =  1.6049967e+05 Press    = -1.2541633e+03 
---------------- Step      220 ----- CPU =      0.1362 (sec) ----------------
PotEng   =  4.2090149e+04 Temp     =  1.6314599e+05 Press    =  1.3026529e+02 
---------------- Step      230 ----- CPU =      0.1416 (sec) ----------------
PotEng   =  3.4089670e+04 Temp     =  1.7274581e+05 Press    =  2.9176039e+03 
---------------- Step      240 ----- CPU =      0.1473 (sec) ----------------
PotEng   =  2.4398674e+04 Temp     =  1.8451599e+05 Press    =  5.2686491e+03 
---------------- Step      250 ----- CPU =      0.1527 (sec) ----------------
PotEng   =  1.9303922e+04 Temp     =  1.8608866e+05 Press    =  5.5117528e+03 
---------------- Step      260 ----- CPU =      0.1580 (sec) ----------------
PotEng   =  2.0991083e+04 Temp     =  1.8256443e+05 Press    =  4.7117758e+03 
---------------- Step      270 ----- CPU =      0.1634 (sec) ----------------
PotEng   =  3.0228410e+04 Temp     =  1.6996055e+05 Press    =  3.3665128e+03 
---------------- Step      280 ----- CPU =      0.1688 (sec) ----------------
PotEng   =  3.5427291e+04 Temp     =  1.5338824e+05 Press    =  1.0220482e+03 
---------------- Step      290 ----- CPU =      0.1741 (sec) ----------------
PotEng   =  4.0649680e+04 Temp     =  1.3774300e+05 Press    = -1.4414699e+03 
---------------- Step      300 ----- CPU =      0.1802 (sec) ----------------
PotEng   =  4.0527295e+04 Temp     =  1.3270687e+05 Press    = -2.3840509e+03 
---------------- Step      310 ----- CPU =      0.1855 (sec) ----------------
PotEng   =  3.4041768e+04 Temp     =  1.4025782e+05 Press    = -1.1438719e+03 
---------------- Step      320 ----- CPU =      0.1909 (sec) ----------------
PotEng   =  2.9655855e+04 Temp     =  1.4403661e+05 Press    =  2.2464753e+02 
---------------- Step      330 ----- CPU =      0.1962 (sec) ----------------
PotEng   =  2.7700253e+04 Temp     =  1.4356495e+05 Press    =  7.7981654e+02 
---------------- Step      340 ----- CPU =      0.2016 (sec) ----------------
PotEng   =  3.0826731e+04 Temp     =  1.3373756e+05 Press    =  1.5920880e+02 
---------------- Step      350 ----- CPU =      0.2072 (sec) ----------------
PotEng   =  2.4202642e+04 Temp     =  1.3731050e+05 Press    = -1.7267570e+02 
---------------- Step      360 ----- CPU =      0.2128 (sec) ----------------
PotEng   =  2.9650150e+04 Temp     =  1.4491006e+05 Press    =  7.9078252e+02 
---------------- Step      370 ----- CPU =      0.2181 (sec) ----------------
PotEng   =  2.9023571e+04 Temp     =  1.4289642e+05 Press    =  3.0101672e+02 
---------------- Step      380 ----- CPU =      0.2234 (sec) ----------------
PotEng   =  3.0455947e+04 Temp     =  1.3932784e+05 Press    = -5.4214619e+02 
---------------- Step      390 ----- CPU =      0.2288 (sec) ----------------
PotEng   =  3.1813043e+04 Temp     =  1.4162935e+05 Press    = -5.7365376e+02 
---------------- Step      400 ----- CPU =      0.2341 (sec) ----------------
PotEng   =  2.6641296e+04 Temp     =  1.4821115e+05 Press    = -3.9532040e+02 
---------------- Step      410 ----- CPU =      0.2396 (sec) ----------------
PotEng   =  2.8557401e+04 Temp     =  1.4285057e+05 Press    = -8.9342630e+02 
---------------- Step      420 ----- CPU =      0.2449 (sec) ----------------
PotEng   =  2.8195004e+04 Temp     =  1.4132969e+05 Press    = -1.6646161e+03 
---------------- Step      430 ----- CPU =      0.2503 (sec) ----------------
PotEng   =  3.1816745e+04 Temp     =  1.3572524e+05 Press    = -2.2581936e+03 
---------------- Step      440 ----- CPU =      0.2556 (sec) ----------------
PotEng   =  3.2664994e+04 Temp     =  1.3222458e+05 Press    = -2.1467579e+03 
---------------- Step      450 ----- CPU =      0.2609 (sec) ----------------
PotEng   =  3.3065765e+04 Temp     =  1.3004042e+05 Press    = -1.5473041e+03 
---------------- Step      460 ----- CPU =      0.2662 (sec) ----------------
PotEng   =  3.0136993e+04 Temp     =  1.3438492e+05 Press    = -2.6870143e+02 
---------------- Step      470 ----- CPU =      0.2721 (sec) ----------------
PotEng   =  2.4700640e+04 Temp     =  1.4644589e+05 Press    =  1.5403010e+03 
---------------- Step      480 ----- CPU =      0.2774 (sec) ----------------
PotEng   =  2.2887779e+04 Temp     =  1.4896093e+05 Press    =  2.2516689e+03 
---------------- Step      490 ----- CPU =      0.2827 (sec) ----------------
PotEng   =  2.5000120e+04 Temp     =  1.4406756e+05 Press    =  1.8841708e+03 
---------------- Step      500 ----- CPU =      0.2880 (sec) ----------------
PotEng   =  2.7275715e+04 Temp     =  1.3904042e+05 Press    =  7.1039134e+02 
---------------- Step      510 ----- CPU =      0.2933 (sec) ----------------
PotEng   =  2.7797110e+04 Temp     =  1.3758346e+05 Press    = -5.0347364e+02 
---------------- Step      520 ----- CPU =      0.3016 (sec) ----------------
PotEng   =  2.7299162e+04 Temp     =  1.3574144e+05 Press    = -1.2854096e+03 
---------------- Step      530 ----- CPU =      0.3072 (sec) ----------------
PotEng   =  2.9673576e+04 Temp     =  1.3397692e+05 Press    = -9.6348409e+02 
---------------- Step      540 ----- CPU =      0.3125 (sec) ----------------
PotEng   =  2.8481424e+04 Temp     =  1.3655087e+05 Press    = -3.5682004e+02 
---------------- Step      550 ----- CPU =      0.3178 (sec) ----------------
PotEng   =  2.8665657e+04 Temp     =  1.3681650e+05 Press    =  6.7756959e+01 
---------------- Step      560 ----- CPU =      0.3231 (sec) ----------------
PotEng   =  3.1537743e+04 Temp     =  1.4426517e+05 Press    =  1.4943164e+03 
---------------- Step      570 ----- CPU =      0.3284 (sec) ----------------
PotEng   =  3.2311910e+04 Temp     =  1.4370230e+05 Press    =  2.1609497e+03 
---------------- Step      580 ----- CPU =      0.3343 (sec) ----------------
PotEng   =  3.3801572e+04 Temp     =  1.4195438e+05 Press    =  2.9761259e+03 
---------------- Step      590 ----- CPU =      0.3395 (sec) ----------------
PotEng   =  3.3389503e+04 Temp     =  1.4389452e+05 Press    =  3.9461496e+03 
---------------- Step      600 ----- CPU =      0.3448 (sec) ----------------
PotEng   =  3.0877809e+04 Temp     =  1.4991834e+05 Press    =  4.9324897e+03 
---------------- Step      610 ----- CPU =      0.3500 (sec) ----------------
PotEng   =  2.6402611e+04 Temp     =  1.6021020e+05 Press    =  5.6022299e+03 
---------------- Step      620 ----- CPU =      0.3552 (sec) ----------------
PotEng   =  2.5597680e+04 Temp     =  1.6288964e+05 Press    =  4.8254412e+03 
---------------- Step      630 ----- CPU =      0.3605 (sec) ----------------
PotEng   =  2.7924687e+04 Temp     =  1.5950795e+05 Press    =  2.2227605e+03 
---------------- Step      640 ----- CPU =      0.3659 (sec) ----------------
PotEng   =  3.5230551e+04 Temp     =  1.4656517e+05 Press    = -2.0153791e+03 
---------------- Step      650 ----- CPU =      0.3712 (sec) ----------------
PotEng   =  4.2854995e+04 Temp     =  1.3310958e+05 Press    = -6.2429159e+03 
---------------- Step      660 ----- CPU =      0.3765 (sec) ----------------
PotEng   =  4.6036613e+04 Temp     =  1.2826052e+05 Press    = -8.5163894e+03 
---------------- Step      670 ----- CPU =      0.3817 (sec) ----------------
PotEng   =  4.3242044e+04 Temp     =  1.3498082e+05 Press    = -8.0498877e+03 
---------------- Step      680 ----- CPU =      0.3869 (sec) ----------------
PotEng   =  3.8570041e+04 Temp     =  1.4552262e+05 Press    = -5.8013166e+03 
---------------- Step      690 ----- CPU =      0.3922 (sec) ----------------
PotEng   =  3.3195103e+04 Temp     =  1.5756601e+05 Press    = -2.6734927e+03 
---------------- Step      700 ----- CPU =      0.3974 (sec) ----------------
PotEng   =  3.1246530e+04 Temp     =  1.6313353e+05 Press    =  1.7502237e+02 
---------------- Step      710 ----- CPU =      0.4027 (sec) ----------------
PotEng   =  2.9891539e+04 Temp     =  1.6733241e+05 Press    =  2.4790105e+03 
---------------- Step      720 ----- CPU =      0.4080 (sec) ----------------
PotEng   =  3.0502918e+04 Temp     =  1.6746400e+05 Press    =  3.5587928e+03 
---------------- Step      730 ----- CPU =      0.4132 (sec) ----------------
PotEng   =  3.1883617e+04 Temp     =  1.6568634e+05 Press    =  3.3511078e+03 
---------------- Step      740 ----- CPU =      0.4185 (sec) ----------------
PotEng   =  3.6734027e+04 Temp     =  1.5722625e+05 Press    =  2.0182958e+03 
---------------- Step      750 ----- CPU =      0.4237 (sec) ----------------
PotEng   =  3.9171881e+04 Temp     =  1.5305813e+05 Press    =  5.5755638e+02 
---------------- Step      760 ----- CPU =      0.4290 (sec) ----------------
PotEng   =  3.8993010e+04 Temp     =  1.5373297e+05 Press    = -5.0758495e+02 
---------------- Step      770 ----- CPU =      0.4343 (sec) ----------------
PotEng   =  3.6838828e+04 Temp     =  1.5394975e+05 Press    = -1.3986037e+03 
---------------- Step      780 ----- CPU =      0.4395 (sec) ----------------
PotEng   =  3.7158798e+04 Temp     =  1.5836300e+05 Press    = -1.1319760e+03 
---------------- Step      790 ----- CPU =      0.4448 (sec) ----------------
PotEng   =  3.4163977e+04 Temp     =  1.6393933e+05 Press    = -5.9685139e+02 
---------------- Step      800 ----- CPU =      0.4500 (sec) ----------------
PotEng   =  3.0973415e+04 Temp     =  1.6956322e+05 Press    = -3.3847101e+01 
---------------- Step      810 ----- CPU =      0.4552 (sec) ----------------
PotEng   =  2.9443127e+04 Temp     =  1.7162845e+05 Press    = -1.2689042e+02 
---------------- Step      820 ----- CPU =      0.4604 (sec) ----------------
PotEng   =  3.0620549e+04 Temp     =  1.6814188e+05 Press    = -1.1741018e+03 
---------------- Step      830 ----- CPU =      0.4656 (sec) ----------------
PotEng   =  3.3815601e+04 Temp     =  1.6058986e+05 Press    = -2.6283123e+03 
---------------- Step      840 ----- CPU =      0.4708 (sec) ----------------
PotEng   =  3.1578028e+04 Temp     =  1.6288163e+05 Press    = -3.0262565e+03 
---------------- Step      850 ----- CPU =      0.4760 (sec) ----------------
PotEng   =  3.1924702e+04 Temp     =  1.6030165e+05 Press    = -2.8809354e+03 
---------------- Step      860 ----- CPU =      0.4812 (sec) ----------------
PotEng   =  3.2098919e+04 Temp     =  1.5779193e+05 Press    = -2.3902333e+03 
---------------- Step      870 ----- CPU =      0.4864 (sec) ----------------
PotEng   =  3.3068049e+04 Temp     =  1.5366403e+05 Press    = -1.8956751e+03 
---------------- Step      880 ----- CPU =      0.4917 (sec) ----------------
PotEng   =  3.4853093e+04 Temp     =  1.4802591e+05 Press    = -1.3290262e+03 
---------------- Step      890 ----- CPU =      0.4969 (sec) ----------------
PotEng   =  3.5373475e+04 Temp     =  1.4486873e+05 Press    = -3.0617669e+02 
---------------- Step      900 ----- CPU =      0.5021 (sec) ----------------
PotEng   =  3.3805751e+04 Temp     =  1.4572666e+05 Press    =  1.1916783e+03 
---------------- Step      910 ----- CPU =      0.5073 (sec) ----------------
PotEng   =  3.0882922e+04 Temp     =  1.4917023e+05 Press    =  2.6716667e+03 
---------------- Step      920 ----- CPU =      0.5125 (sec) ----------------
PotEng   =  2.6218133e+04 Temp     =  1.5578842e+05 Press    =  3.8908661e+03 
---------------- Step      930 ----- CPU =      0.5176 (sec) ----------------
PotEng   =  2.4442010e+04 Temp     =  2.0700378e+05 Press    =  8.2599920e+03 
---------------- Step      940 ----- CPU =      0.5228 (sec) ----------------
PotEng   =  2.6966494e+04 Temp     =  1.9807395e+05 Press    =  6.1266916e+03 
---------------- Step      950 ----- CPU =      0.5280 (sec) ----------------
PotEng   =  3.2890554e+04 Temp     =  1.8199166e+05 Press    =  2.3205526e+03 
---------------- Step      960 ----- CPU =      0.5332 (sec) ----------------
PotEng   =  3.9861813e+04 Temp     =  1.6382785e+05 Press    = -1.9006442e+03 
---------------- Step      970 ----- CPU =      0.5384 (sec) ----------------
PotEng   =  4.4585898e+04 Temp     =  1.5029751e+05 Press    = -4.8026387e+03 
---------------- Step      980 ----- CPU =      0.5436 (sec) ----------------
PotEng   =  4.3997212e+04 Temp     =  1.4711310e+05 Press    = -5.4818993e+03 
---------------- Step      990 ----- CPU =      0.5487 (sec) ----------------
PotEng   =  3.8960333e+04 Temp     =  1.5242093e+05 Press    = -4.1600472e+03 
---------------- Step     1000 ----- CPU =      0.5539 (sec) ----------------
PotEng   =  3.2370088e+04 Temp     =  1.6176158e+05 Press    = -1.6876866e+03 
---------------- Step     1010 ----- CPU =      0.5591 (sec) ----------------
PotEng   =  2.8927191e+04 Temp     =  1.6886217e+05 Press    =  7.6347032e+02 
---------------- Step     1020 ----- CPU =      0.5642 (sec) ----------------
PotEng   =  2.8092373e+04 Temp     =  1.6526826e+05 Press    =  1.8487993e+03 
---------------- Step     1030 ----- CPU =      0.5693 (sec) ----------------
PotEng   =  2.8419960e+04 Temp     =  1.5949097e+05 Press    =  2.2033262e+03 
---------------- Step     1040 ----- CPU =      0.5744 (sec) ----------------
PotEng   =  2.5215702e+04 Temp     =  1.5929633e+05 Press    =  2.3170737e+03 
---------------- Step     1050 ----- CPU =      0.9569 (sec) ----------------
PotEng   =  2.7033797e+04 Temp     =  1.5160378e+05 Press    =  1.9984608e+03 
---------------- Step     1060 ----- CPU =      0.9736 (sec) ----------------
PotEng   =  2.8083758e+04 Temp     =  1.4772775e+05 Press    =  1.3538764e+03 
---------------- Step     1070 ----- CPU =      0.9838 (sec) ----------------
PotEng   =  3.0157582e+04 Temp     =  1.3954509e+05 Press    = -2.0833034e+01 
---------------- Step     1080 ----- CPU =      0.9912 (sec) ----------------
PotEng   =  3.3403162e+04 Temp     =  1.2980943e+05 Press    = -1.3661951e+03 
---------------- Step     1090 ----- CPU =      0.9968 (sec) ----------------
PotEng   =  3.3339286e+04 Temp     =  1.2681551e+05 Press    = -2.0622696e+03 
---------------- Step     1100 ----- CPU =      1.0023 (sec) ----------------
PotEng   =  3.3769073e+04 Temp     =  1.2358231e+05 Press    = -2.0434088e+03 
---------------- Step     1110 ----- CPU =      1.0084 (sec) ----------------
PotEng   =  3.0486933e+04 Temp     =  1.2760901e+05 Press    = -1.4361109e+03 
---------------- Step     1120 ----- CPU =      1.0137 (sec) ----------------
PotEng   =  3.1237519e+04 Temp     =  1.2459160e+05 Press    = -1.1961881e+03 
---------------- Step     1130 ----- CPU =      1.0190 (sec) ----------------
PotEng   =  3.0635075e+04 Temp     =  1.2467240e+05 Press    = -1.1267131e+03 
---------------- Step     1140 ----- CPU =      1.0242 (sec) ----------------
PotEng   =  3.1704789e+04 Temp     =  1.2185812e+05 Press    = -1.2330684e+03 
---------------- Step     1150 ----- CPU =      1.0294 (sec) ----------------
PotEng   =  2.7239707e+04 Temp     =  1.3005742e+05 Press    = -5.2066694e+02 
---------------- Step     1160 ----- CPU =      1.0346 (sec) ----------------
PotEng   =  2.6004815e+04 Temp     =  1.3416426e+05 Press    =  9.7537833e+01 
---------------- Step     1170 ----- CPU =      1.0407 (sec) ----------------
PotEng   =  2.4708115e+04 Temp     =  1.3687941e+05 Press    =  1.6981947e+02 
---------------- Step     1180 ----- CPU =      1.0458 (sec) ----------------
PotEng   =  2.5786020e+04 Temp     =  1.3539866e+05 Press    = -4.6954515e+02 
---------------- Step     1190 ----- CPU =      1.0510 (sec) ----------------
PotEng   =  2.8700749e+04 Temp     =  1.3074711e+05 Press    = -1.5294203e+03 
---------------- Step     1200 ----- CPU =      1.0560 (sec) ----------------
PotEng   =  3.2226805e+04 Temp     =  1.2527035e+05 Press    = -2.4353836e+03 
---------------- Step     1210 ----- CPU =      1.0612 (sec) ----------------
PotEng   =  3.4413251e+04 Temp     =  1.2268303e+05 Press    = -2.5255622e+03 
---------------- Step     1220 ----- CPU =      1.0663 (sec) ----------------
PotEng   =  3.3199789e+04 Temp     =  1.2690319e+05 Press    = -1.3441187e+03 
---------------- Step     1230 ----- CPU =      1.0718 (sec) ----------------
PotEng   =  2.7969572e+04 Temp     =  1.3912433e+05 Press    =  9.2330940e+02 
---------------- Step     1240 ----- CPU =      1.0769 (sec) ----------------
PotEng   =  2.1834443e+04 Temp     =  1.5345369e+05 Press    =  3.3196428e+03 
---------------- Step     1250 ----- CPU =      1.0820 (sec) ----------------
PotEng   =  1.8944556e+04 Temp     =  1.6175023e+05 Press    =  4.7774758e+03 
---------------- Step     1260 ----- CPU =      1.0871 (sec) ----------------
PotEng   =  2.0876045e+04 Temp     =  1.6082924e+05 Press    =  4.6233009e+03 
---------------- Step     1270 ----- CPU =      1.0922 (sec) ----------------
PotEng   =  2.5232562e+04 Temp     =  1.5506925e+05 Press    =  3.1766614e+03 
---------------- Step     1280 ----- CPU =      1.0973 (sec) ----------------
PotEng   =  3.1568608e+04 Temp     =  1.4540913e+05 Press    =  8.8897399e+02 
---------------- Step     1290 ----- CPU =      1.1024 (sec) ----------------
PotEng   =  3.7719158e+04 Temp     =  1.3607321e+05 Press    = -1.2852877e+03 
---------------- Step     1300 ----- CPU =      1.1077 (sec) ----------------
PotEng   =  4.0460834e+04 Temp     =  1.3328499e+05 Press    = -2.1893629e+03 
---------------- Step     1310 ----- CPU =      1.1128 (sec) ----------------
PotEng   =  3.8051427e+04 Temp     =  1.4044906e+05 Press    = -1.2503941e+03 
---------------- Step     1320 ----- CPU =      1.1178 (sec) ----------------
PotEng   =  3.2461994e+04 Temp     =  1.5388433e+05 Press    =  9.0198767e+02 
---------------- Step     1330 ----- CPU =      1.1228 (sec) ----------------
PotEng   =  2.8030073e+04 Temp     =  1.6524751e+05 Press    =  2.9061038e+03 
---------------- Step     1340 ----- CPU =      1.1279 (sec) ----------------
PotEng   =  2.7102476e+04 Temp     =  1.6980554e+05 Press    =  3.8251736e+03 
---------------- Step     1350 ----- CPU =      1.1329 (sec) ----------------
PotEng   =  2.8190024e+04 Temp     =  1.7015569e+05 Press    =  3.6735186e+03 
---------------- Step     1360 ----- CPU =      1.1386 (sec) ----------------
PotEng   =  3.0234616e+04 Temp     =  1.7962466e+05 Press    =  3.6404195e+03 
---------------- Step     1370 ----- CPU =      1.1436 (sec) ----------------
PotEng   =  3.2999101e+04 Temp     =  1.7572291e+05 Press    =  2.0152592e+03 
---------------- Step     1380 ----- CPU =      1.1487 (sec) ----------------
PotEng   =  3.5718105e+04 Temp     =  1.7131935e+05 Press    = -7.0091587e+00 
---------------- Step     1390 ----- CPU =      1.1537 (sec) ----------------
PotEng   =  3.9954862e+04 Temp     =  1.6365513e+05 Press    = -2.5815937e+03 
---------------- Step     1400 ----- CPU =      1.1587 (sec) ----------------
PotEng   =  4.5277760e+04 Temp     =  1.5373483e+05 Press    = -5.2110212e+03 
---------------- Step     1410 ----- CPU =      1.1637 (sec) ----------------
PotEng   =  4.8831935e+04 Temp     =  1.4710393e+05 Press    = -6.8615734e+03 
---------------- Step     1420 ----- CPU =      1.1693 (sec) ----------------
PotEng   =  4.8896923e+04 Temp     =  1.4707377e+05 Press    = -6.8899948e+03 
---------------- Step     1430 ----- CPU =      1.1743 (sec) ----------------
PotEng   =  4.5597817e+04 Temp     =  1.5336755e+05 Press    = -5.3175351e+03 
---------------- Step     1440 ----- CPU =      1.1793 (sec) ----------------
PotEng   =  4.0718105e+04 Temp     =  1.6249063e+05 Press    = -2.7644153e+03 
---------------- Step     1450 ----- CPU =      1.1843 (sec) ----------------
PotEng   =  3.7217033e+04 Temp     =  1.6870240e+05 Press    = -2.2397067e+02 
---------------- Step     1460 ----- CPU =      1.1892 (sec) ----------------
PotEng   =  3.6066546e+04 Temp     =  1.7004570e+05 Press    =  1.6567742e+03 
---------------- Step     1470 ----- CPU =      1.1942 (sec) ----------------
PotEng   =  3.5732554e+04 Temp     =  1.6937619e+05 Press    =  2.9555006e+03 
---------------- Step     1480 ----- CPU =      1.1998 (sec) ----------------
PotEng   =  3.4610470e+04 Temp     =  1.6972113e+05 Press    =  3.8644993e+03 
---------------- Step     1490 ----- CPU =      1.2048 (sec) ----------------
PotEng   =  3.1616319e+04 Temp     =  1.7309573e+05 Press    =  4.4532507e+03 
---------------- Step     1500 ----- CPU =      1.2097 (sec) ----------------
PotEng   =  2.9068781e+04 Temp     =  1.7501580e+05 Press    =  4.3983960e+03 
---------------- Step     1510 ----- CPU =      1.2147 (sec) ----------------
PotEng   =  2.8185733e+04 Temp     =  1.7328556e+05 Press    =  3.3644430e+03 
---------------- Step     1520 ----- CPU =      1.2196 (sec) ----------------
PotEng   =  3.1447455e+04 Temp     =  1.6349142e+05 Press    =  1.0097743e+03 
---------------- Step     1530 ----- CPU =      1.2246 (sec) ----------------
PotEng   =  3.7151665e+04 Temp     =  1.4925492e+05 Press    = -2.0568163e+03 
---------------- Step     1540 ----- CPU =      1.2296 (sec) ----------------
PotEng   =  4.1358091e+04 Temp     =  1.3826969e+05 Press    = -4.6395008e+03 
---------------- Step     1550 ----- CPU =      1.2348 (sec) ----------------
PotEng   =  4.3230989e+04 Temp     =  1.3218260e+05 Press    = -5.8687003e+03 
---------------- Step     1560 ----- CPU =      1.2398 (sec) ----------------
PotEng   =  4.0104074e+04 Temp     =  1.3581757e+05 Press    = -5.4257112e+03 
---------------- Step     1570 ----- CPU =      1.2447 (sec) ----------------
PotEng   =  3.4881127e+04 Temp     =  1.4350704e+05 Press    = -4.0378722e+03 
---------------- Step     1580 ----- CPU =      1.2529 (sec) ----------------
PotEng   =  3.1677010e+04 Temp     =  1.4744942e+05 Press    = -2.5833137e+03 
---------------- Step     1590 ----- CPU =      1.2579 (sec) ----------------
PotEng   =  2.9959355e+04 Temp     =  1.4863678e+05 Press    = -1.5041364e+03 
---------------- Step     1600 ----- CPU =      1.2632 (sec) ----------------
PotEng   =  3.1642251e+04 Temp     =  1.4394026e+05 Press    = -9.8459011e+02 
---------------- Step     1610 ----- CPU =      1.2680 (sec) ----------------
PotEng   =  3.3656161e+04 Temp     =  1.3833447e+05 Press    = -6.3152135e+02 
---------------- Step     1620 ----- CPU =      1.2729 (sec) ----------------
PotEng   =  3.4093039e+04 Temp     =  1.3595063e+05 Press    = -4.7383789e+01 
---------------- Step     1630 ----- CPU =      1.2778 (sec) ----------------
PotEng   =  3.2579864e+04 Temp     =  1.3746435e+05 Press    =  8.3516241e+02 
---------------- Step     1640 ----- CPU =      1.2828 (sec) ----------------
PotEng   =  2.8109323e+04 Temp     =  1.4513342e+05 Press    =  1.9133393e+03 
---------------- Step     1650 ----- CPU =      1.2877 (sec) ----------------
PotEng   =  2.8928565e+04 Temp     =  1.9094397e+05 Press    =  5.5694052e+03 
---------------- Step     1660 ----- CPU =      1.2926 (sec) ----------------
PotEng   =  3.0597401e+04 Temp     =  1.8491896e+05 Press    =  4.4538631e+03 
---------------- Step     1670 ----- CPU =      1.2980 (sec) ----------------
PotEng   =  3.5679225e+04 Temp     =  1.7189958e+05 Press    =  2.1055310e+03 
---------------- Step     1680 ----- CPU =      1.3029 (sec) ----------------
PotEng   =  4.1221081e+04 Temp     =  1.5792637e+05 Press    = -4.9108403e+02 
---------------- Step     1690 ----- CPU =      1.3078 (sec) ----------------
PotEng   =  4.4219848e+04 Temp     =  1.4892206e+05 Press    = -2.4356611e+03 
---------------- Step     1700 ----- CPU =      1.3127 (sec) ----------------
PotEng   =  4.4795298e+04 Temp     =  1.4472243e+05 Press    = -3.5599464e+03 
---------------- Step     1710 ----- CPU =      1.3176 (sec) ----------------
PotEng   =  4.3945746e+04 Temp     =  1.4342364e+05 Press    = -4.0446651e+03 
---------------- Step     1720 ----- CPU =      1.3225 (sec) ----------------
PotEng   =  4.2967024e+04 Temp     =  1.4256099e+05 Press    = -4.1932349e+03 
---------------- Step     1730 ----- CPU =      1.3277 (sec) ----------------
PotEng   =  4.2900580e+04 Temp     =  1.4020436e+05 Press    = -4.2090534e+03 
---------------- Step     1740 ----- CPU =      1.3326 (sec) ----------------
PotEng   =  4.2668991e+04 Temp     =  1.3840755e+05 Press    = -3.9017776e+03 
---------------- Step     1750 ----- CPU =      1.3373 (sec) ----------------
PotEng   =  3.9816009e+04 Temp     =  1.4173613e+05 Press    = -2.8701144e+03 
---------------- Step     1760 ----- CPU =      1.3422 (sec) ----------------
PotEng   =  3.5733705e+04 Temp     =  1.4991798e+05 Press    = -1.1188655e+03 
---------------- Step     1770 ----- CPU =      1.3470 (sec) ----------------
PotEng   =  3.0707136e+04 Temp     =  1.5720381e+05 Press    =  5.6848259e+02 
---------------- Step     1780 ----- CPU =      1.3519 (sec) ----------------
PotEng   =  2.4391408e+04 Temp     =  1.7942096e+05 Press    =  3.1282693e+03 
---------------- Step     1790 ----- CPU =      1.3567 (sec) ----------------
PotEng   =  2.3403209e+04 Temp     =  1.7727235e+05 Press    =  3.8828790e+03 
---------------- Step     1800 ----- CPU =      1.3619 (sec) ----------------
PotEng   =  2.2942319e+04 Temp     =  1.7433370e+05 Press    =  3.7837737e+03 
---------------- Step     1810 ----- CPU =      1.3669 (sec) ----------------
PotEng   =  2.6060324e+04 Temp     =  1.6438762e+05 Press    =  2.6266215e+03 
---------------- Step     1820 ----- CPU =      1.3718 (sec) ----------------
PotEng   =  3.0215550e+04 Temp     =  1.5261389e+05 Press    =  1.0580785e+03 
---------------- Step     1830 ----- CPU =      1.3766 (sec) ----------------
PotEng   =  3.1870527e+04 Temp     =  1.4580976e+05 Press    = -2.5003899e+02 
---------------- Step     1840 ----- CPU =      1.3814 (sec) ----------------
PotEng   =  3.4166208e+04 Temp     =  1.3819226e+05 Press    = -1.5358831e+03 
---------------- Step     1850 ----- CPU =      1.3862 (sec) ----------------
PotEng   =  3.6118432e+04 Temp     =  1.3169543e+05 Press    = -2.5642290e+03 
---------------- Step     1860 ----- CPU =      1.3912 (sec) ----------------
PotEng   =  3.7154165e+04 Temp     =  1.2741107e+05 Press    = -3.1081921e+03 
---------------- Step     1870 ----- CPU =      1.3960 (sec) ----------------
PotEng   =  3.6730548e+04 Temp     =  1.2633195e+05 Press    = -2.9537794e+03 
---------------- Step     1880 ----- CPU =      1.4008 (sec) ----------------
PotEng   =  3.4600013e+04 Temp     =  1.2882343e+05 Press    = -2.0637151e+03 
---------------- Step     1890 ----- CPU =      1.4056 (sec) ----------------
PotEng   =  3.2063029e+04 Temp     =  1.3238781e+05 Press    = -6.8468257e+02 
---------------- Step     1900 ----- CPU =      1.4104 (sec) ----------------
PotEng   =  2.8541948e+04 Temp     =  1.3804343e+05 Press    =  8.1137080e+02 
---------------- Step     1910 ----- CPU =      1.4153 (sec) ----------------
PotEng   =  2.4042847e+04 Temp     =  1.4567600e+05 Press    =  2.2453699e+03 
---------------- Step     1920 ----- CPU =      1.4201 (sec) ----------------
PotEng   =  2.1115547e+04 Temp     =  1.5038403e+05 Press    =  2.9829403e+03 
---------------- Step     1930 ----- CPU =      1.4253 (sec) ----------------
PotEng   =  2.3755533e+04 Temp     =  1.4468135e+05 Press    =  2.2282765e+03 
---------------- Step     1940 ----- CPU =      1.4301 (sec) ----------------
PotEng   =  2.9315568e+04 Temp     =  1.3367778e+05 Press    =  6.8505097e+02 
---------------- Step     1950 ----- CPU =      1.4349 (sec) ----------------
PotEng   =  3.5033635e+04 Temp     =  1.2273779e+05 Press    = -7.5565375e+02 
---------------- Step     1960 ----- CPU =      1.4397 (sec) ----------------
PotEng   =  3.8007056e+04 Temp     =  1.1741529e+05 Press    = -1.4205679e+03 
---------------- Step     1970 ----- CPU =      1.4444 (sec) ----------------
PotEng   =  3.6528967e+04 Temp     =  1.2100314e+05 Press    = -8.0811999e+02 
---------------- Step     1980 ----- CPU =      1.4492 (sec) ----------------
PotEng   =  3.2325170e+04 Temp     =  1.3009139e+05 Press    =  7.6265691e+02 
---------------- Step     1990 ----- CPU =      1.4543 (sec) ----------------
PotEng   =  2.4934933e+04 Temp     =  1.4554212e+05 Press    =  2.6874017e+03 
---------------- Step     2000 ----- CPU =      1.4592 (sec) ----------------
PotEng   =  2.1705095e+04 Temp     =  1.5353054e+05 Press    =  3.9640904e+03 
Loop time of 1.45917 on 5 procs for 2000 steps with 180 atoms

Performance: 5.777 ns/day, 4.155 hours/ns, 1370.639 timesteps/s
369.4% CPU use with 1 MPI tasks x 5 OpenMP threads

MPI task timing breakdown:
Section |  min time  |  avg time  |  max time  |%varavg| %total
---------------------------------------------------------------
Pair    | 0.22772    | 0.22772    | 0.22772    |   0.0 | 15.61
Bond    | 0.006664   | 0.006664   | 0.006664   |   0.0 |  0.46
Kspace  | 0.44662    | 0.44662    | 0.44662    |   0.0 | 30.61
Neigh   | 0.015615   | 0.015615   | 0.015615   |   0.0 |  1.07
Comm    | 0.009327   | 0.009327   | 0.009327   |   0.0 |  0.64
Output  | 0.44589    | 0.44589    | 0.44589    |   0.0 | 30.56
Modify  | 0.30418    | 0.30418    | 0.30418    |   0.0 | 20.85
Other   |            | 0.003169   |            |       |  0.22

Nlocal:    180 ave 180 max 180 min
Histogram: 1 0 0 0 0 0 0 0 0 0
Nghost:    704 ave 704 max 704 min
Histogram: 1 0 0 0 0 0 0 0 0 0
Neighs:    2009 ave 2009 max 2009 min
Histogram: 1 0 0 0 0 0 0 0 0 0

Total # of neighbors = 2009
Ave neighs/atom = 11.1611
Ave special neighs/atom = 3.5
Neighbor list builds = 189
Dangerous builds = 125
Total wall time: 0:00:02
