LAMMPS (22 Aug 2018)
OMP_NUM_THREADS environment is not set. Defaulting to 1 thread. (../comm.cpp:87)
  using 1 OpenMP thread(s) per MPI task
# LAMMPS INPUT FILE GENERATED BY SIM SUITE
clear
OMP_NUM_THREADS environment is not set. Defaulting to 1 thread. (../comm.cpp:87)
  using 1 OpenMP thread(s) per MPI task

# Initialize simulation box
package omp     5
set 5 OpenMP thread(s) per MPI task
using multi-threaded neighbor list subroutines
dimension       3
boundary        p p p
units           real
atom_style      full

# Set potential styles
pair_style      hybrid/overlay table2 spline 1000 coul/long  2.25000e+01
kspace_style    pppm 1.e-4
bond_style      harmonic

# Read molecule data and set initial velocities
read_data       /home/mnguyen/bin/PECG/test_PAAf0.5_implicitSol_NPT/tmpXd2UeS1.lammps.data
  orthogonal box = (-27 -27 -27) to (27 27 27)
  1 by 1 by 1 MPI processor grid
  reading atoms ...
  180 atoms
  scanning bonds ...
  2 = max bonds/atom
  reading bonds ...
  165 bonds
  2 = max # of 1-2 neighbors
  2 = max # of 1-3 neighbors
  4 = max # of 1-4 neighbors
  6 = max # of special neighbors
velocity        all create  1.5014e+05 50729 rot yes dist gaussian

# Assign potentials
pair_coeff      *     *     coul/long
pair_coeff          1     1 table2 /home/mnguyen/bin/PECG/test_PAAf0.5_implicitSol_NPT/tmpXd2UeS1.lammps.pair PairPotential4[0]11[0]
WARNING: 7 of 1000 force values in table are inconsistent with -dE/dr.
  Should only be flagged at inflection points (../pair_table2.cpp:484)
WARNING: 491 of 1000 distance values in table with relative error
  over 1e-06 to re-computed values (../pair_table2.cpp:493)
pair_coeff          1     2 table2 /home/mnguyen/bin/PECG/test_PAAf0.5_implicitSol_NPT/tmpXd2UeS1.lammps.pair PairPotential2[0]9[1]
WARNING: 41 of 1000 force values in table are inconsistent with -dE/dr.
  Should only be flagged at inflection points (../pair_table2.cpp:484)
WARNING: 491 of 1000 distance values in table with relative error
  over 1e-06 to re-computed values (../pair_table2.cpp:493)
pair_coeff          2     2 table2 /home/mnguyen/bin/PECG/test_PAAf0.5_implicitSol_NPT/tmpXd2UeS1.lammps.pair PairPotential1[0]8[2]
WARNING: 41 of 1000 force values in table are inconsistent with -dE/dr.
  Should only be flagged at inflection points (../pair_table2.cpp:484)
WARNING: 491 of 1000 distance values in table with relative error
  over 1e-06 to re-computed values (../pair_table2.cpp:493)
bond_coeff          1  2.9624e+02  3.5000e+00

special_bonds     lj 1.0 1.0 1.0 coul 0.0 0.0 1.0
  2 = max # of 1-2 neighbors
  2 = max # of 1-3 neighbors
  6 = max # of special neighbors



#Thermostat & time integration
timestep        4.8780e-02
thermo          10
thermo_style    custom pe temp press
thermo_modify   line multi norm no format float %14.7e

#minimization
minimize        1.e-4 0.0 100 100
WARNING: Using 'neigh_modify every 1 delay 0 check yes' setting during minimization (../min.cpp:168)
PPPM initialization ...
WARNING: System is not charge neutral, net charge = -90 (../kspace.cpp:302)
  using 12-bit tables for long-range coulomb (../kspace.cpp:321)
  G vector (1/distance) = 0.0997632
  grid = 8 8 8
  stencil order = 5
  estimated absolute RMS force accuracy = 0.0217008
  estimated relative force accuracy = 6.53515e-05
  using double precision FFTs
  3d grid and FFT values/proc = 2197 512
No /omp style for force computation currently active
Neighbor list info ...
  update every 1 steps, delay 0 steps, check yes
  max neighbors/atom: 2000, page size: 100000
  master list distance cutoff = 24.5
  ghost atom cutoff = 24.5
  binsize = 12.25, bins = 5 5 5
  2 neighbor lists, perpetual/occasional/extra = 2 0 0
  (1) pair table2, perpetual
      attributes: half, newton on, omp
      pair build: half/bin/newton/omp
      stencil: half/bin/3d/newton
      bin: standard
  (2) pair coul/long, perpetual, copy from (1)
      attributes: half, newton on, omp
      pair build: copy
      stencil: none
      bin: none
WARNING: Inconsistent image flags (../domain.cpp:782)
Per MPI rank memory allocation (min/avg/max) = 13.34 | 13.34 | 13.34 Mbytes
---------------- Step        0 ----- CPU =      0.0000 (sec) ----------------
PotEng   =  9.1727463e+03 Temp     =  1.5014000e+05 Press    =  3.1464870e+04 
---------------- Step       10 ----- CPU =      0.0124 (sec) ----------------
PotEng   =  3.4274828e+03 Temp     =  1.5014000e+05 Press    =  2.5109757e+04 
---------------- Step       20 ----- CPU =      0.0211 (sec) ----------------
PotEng   =  2.4426036e+03 Temp     =  1.5014000e+05 Press    =  2.5048047e+04 
---------------- Step       30 ----- CPU =      0.0271 (sec) ----------------
PotEng   =  1.5170236e+03 Temp     =  1.5014000e+05 Press    =  2.4671915e+04 
---------------- Step       38 ----- CPU =      0.0608 (sec) ----------------
PotEng   = -2.7468791e+04 Temp     =  1.5014000e+05 Press    =  2.4566925e+04 
Loop time of 0.0608584 on 5 procs for 38 steps with 180 atoms

498.8% CPU use with 1 MPI tasks x 5 OpenMP threads

Minimization stats:
  Stopping criterion = energy tolerance
  Energy initial, next-to-last, final = 
         9172.74634028     -27467.9411488     -27468.7905831
  Force two-norm initial, final = 3218.07 941479
  Force max component initial, final = 475.934 625605
  Final line search alpha, max atom move = 4.85487e-12 3.03723e-06
  Iterations, force evaluations = 38 91

MPI task timing breakdown:
Section |  min time  |  avg time  |  max time  |%varavg| %total
---------------------------------------------------------------
Pair    | 0.039142   | 0.039142   | 0.039142   |   0.0 | 64.32
Bond    | 0.00028606 | 0.00028606 | 0.00028606 |   0.0 |  0.47
Kspace  | 0.019772   | 0.019772   | 0.019772   |   0.0 | 32.49
Neigh   | 0.00032601 | 0.00032601 | 0.00032601 |   0.0 |  0.54
Comm    | 0.00045808 | 0.00045808 | 0.00045808 |   0.0 |  0.75
Output  | 2.0626e-05 | 2.0626e-05 | 2.0626e-05 |   0.0 |  0.03
Modify  | 0.00045165 | 0.00045165 | 0.00045165 |   0.0 |  0.74
Other   |            | 0.0004023  |            |       |  0.66

Nlocal:    180 ave 180 max 180 min
Histogram: 1 0 0 0 0 0 0 0 0 0
Nghost:    1051 ave 1051 max 1051 min
Histogram: 1 0 0 0 0 0 0 0 0 0
Neighs:    6771 ave 6771 max 6771 min
Histogram: 1 0 0 0 0 0 0 0 0 0

Total # of neighbors = 6771
Ave neighs/atom = 37.6167
Ave special neighs/atom = 3.5
Neighbor list builds = 3
Dangerous builds = 0

#Set up integration parameters
fix             nptstat all npt temp  1.5014e+05  1.5014e+05  4.8780e+00 iso  1.4584e-06  1.4584e-06  4.8780e+01


#restart thermo
reset_timestep  0
thermo          10
thermo_style    custom pe temp press
WARNING: New thermo_style command, previous thermo_modify settings will be lost (../output.cpp:705)
thermo_modify   line multi norm no format float %14.7e
variable PRESS equal press
variable STEP equal step

#run equilibration
run             2000
PPPM initialization ...
  using 12-bit tables for long-range coulomb (../kspace.cpp:321)
  G vector (1/distance) = 0.0997632
  grid = 8 8 8
  stencil order = 5
  estimated absolute RMS force accuracy = 0.0217008
  estimated relative force accuracy = 6.53515e-05
  using double precision FFTs
  3d grid and FFT values/proc = 2197 512
No /omp style for force computation currently active
WARNING: Inconsistent image flags (../domain.cpp:782)
Per MPI rank memory allocation (min/avg/max) = 12.21 | 12.21 | 12.21 Mbytes
---------------- Step        0 ----- CPU =      0.0000 (sec) ----------------
PotEng   = -2.7468791e+04 Temp     =  1.5014000e+05 Press    =  2.4566925e+04 
---------------- Step       10 ----- CPU =      0.0267 (sec) ----------------
PotEng   =  1.0370364e+04 Temp     =  3.2561585e+05 Press    =  4.8293140e+04 
---------------- Step       20 ----- CPU =      0.0375 (sec) ----------------
PotEng   =  2.9593317e+04 Temp     =  2.7923192e+05 Press    =  3.1178265e+04 
---------------- Step       30 ----- CPU =      0.0453 (sec) ----------------
PotEng   =  5.6713394e+04 Temp     =  2.1748525e+05 Press    =  8.1685219e+03 
---------------- Step       40 ----- CPU =      0.0508 (sec) ----------------
PotEng   =  8.0947606e+04 Temp     =  1.6507389e+05 Press    = -1.2339919e+04 
---------------- Step       50 ----- CPU =      0.0563 (sec) ----------------
PotEng   =  9.1862246e+04 Temp     =  1.4106411e+05 Press    = -2.3581914e+04 
---------------- Step       60 ----- CPU =      0.0618 (sec) ----------------
PotEng   =  8.7060045e+04 Temp     =  1.4794340e+05 Press    = -2.4019622e+04 
---------------- Step       70 ----- CPU =      0.0674 (sec) ----------------
PotEng   =  7.2915440e+04 Temp     =  1.7258443e+05 Press    = -1.7292324e+04 
---------------- Step       80 ----- CPU =      0.0729 (sec) ----------------
PotEng   =  5.9711998e+04 Temp     =  1.9488379e+05 Press    = -9.5187206e+03 
---------------- Step       90 ----- CPU =      0.0784 (sec) ----------------
PotEng   =  5.1702041e+04 Temp     =  2.0637858e+05 Press    = -4.0634304e+03 
---------------- Step      100 ----- CPU =      0.0839 (sec) ----------------
PotEng   =  4.6333465e+04 Temp     =  2.5127475e+05 Press    =  6.3581931e+03 
---------------- Step      110 ----- CPU =      0.0895 (sec) ----------------
PotEng   =  4.0878292e+04 Temp     =  2.5277116e+05 Press    =  8.8850714e+03 
---------------- Step      120 ----- CPU =      0.0951 (sec) ----------------
PotEng   =  4.4927030e+04 Temp     =  2.3508400e+05 Press    =  5.9382808e+03 
---------------- Step      130 ----- CPU =      0.1008 (sec) ----------------
PotEng   =  5.3710245e+04 Temp     =  2.0932033e+05 Press    =  7.6493591e+02 
---------------- Step      140 ----- CPU =      0.1064 (sec) ----------------
PotEng   =  6.0401144e+04 Temp     =  1.8917860e+05 Press    = -2.8394963e+03 
---------------- Step      150 ----- CPU =      0.1120 (sec) ----------------
PotEng   =  6.4630256e+04 Temp     =  1.7509987e+05 Press    = -4.4360685e+03 
---------------- Step      160 ----- CPU =      0.1175 (sec) ----------------
PotEng   =  6.3040414e+04 Temp     =  1.7288986e+05 Press    = -2.6713897e+03 
---------------- Step      170 ----- CPU =      0.1231 (sec) ----------------
PotEng   =  5.0459893e+04 Temp     =  1.9124152e+05 Press    =  4.1506692e+03 
---------------- Step      180 ----- CPU =      0.1286 (sec) ----------------
PotEng   =  4.1021877e+04 Temp     =  2.0296332e+05 Press    =  8.8272014e+03 
---------------- Step      190 ----- CPU =      0.1341 (sec) ----------------
PotEng   =  4.1500528e+04 Temp     =  1.9550528e+05 Press    =  7.6699854e+03 
---------------- Step      200 ----- CPU =      0.1397 (sec) ----------------
PotEng   =  4.9879761e+04 Temp     =  1.7356986e+05 Press    =  1.7335998e+03 
---------------- Step      210 ----- CPU =      0.1453 (sec) ----------------
PotEng   =  5.7738013e+04 Temp     =  1.5368857e+05 Press    = -3.9639143e+03 
---------------- Step      220 ----- CPU =      0.1508 (sec) ----------------
PotEng   =  5.6330393e+04 Temp     =  1.5207599e+05 Press    = -5.0900691e+03 
---------------- Step      230 ----- CPU =      0.1564 (sec) ----------------
PotEng   =  4.9201757e+04 Temp     =  1.6230294e+05 Press    = -2.7747727e+03 
---------------- Step      240 ----- CPU =      0.1619 (sec) ----------------
PotEng   =  4.0703419e+04 Temp     =  1.7404351e+05 Press    =  6.4015382e+02 
---------------- Step      250 ----- CPU =      0.1675 (sec) ----------------
PotEng   =  3.5334006e+04 Temp     =  1.7944936e+05 Press    =  2.8297117e+03 
---------------- Step      260 ----- CPU =      0.1731 (sec) ----------------
PotEng   =  3.8347157e+04 Temp     =  1.6922391e+05 Press    =  2.1726629e+03 
---------------- Step      270 ----- CPU =      0.1786 (sec) ----------------
PotEng   =  4.3958737e+04 Temp     =  1.5431434e+05 Press    =  1.8174722e+02 
---------------- Step      280 ----- CPU =      0.1841 (sec) ----------------
PotEng   =  4.6002647e+04 Temp     =  1.4672598e+05 Press    =  1.7713171e+02 
---------------- Step      290 ----- CPU =      0.1897 (sec) ----------------
PotEng   =  4.1470959e+04 Temp     =  1.5180758e+05 Press    =  3.1699852e+03 
---------------- Step      300 ----- CPU =      0.1952 (sec) ----------------
PotEng   =  3.4291014e+04 Temp     =  1.6187202e+05 Press    =  7.0732115e+03 
---------------- Step      310 ----- CPU =      0.2008 (sec) ----------------
PotEng   =  2.7254592e+04 Temp     =  1.7173460e+05 Press    =  9.4785997e+03 
---------------- Step      320 ----- CPU =      0.2063 (sec) ----------------
PotEng   =  3.2099780e+04 Temp     =  1.6265811e+05 Press    =  7.9463348e+03 
---------------- Step      330 ----- CPU =      0.2118 (sec) ----------------
PotEng   =  3.9986919e+04 Temp     =  1.4429841e+05 Press    =  3.0539440e+03 
---------------- Step      340 ----- CPU =      0.2173 (sec) ----------------
PotEng   =  4.6833573e+04 Temp     =  1.2863300e+05 Press    = -1.6904316e+03 
---------------- Step      350 ----- CPU =      0.2229 (sec) ----------------
PotEng   =  4.8479102e+04 Temp     =  1.2343744e+05 Press    = -3.7661420e+03 
---------------- Step      360 ----- CPU =      0.2284 (sec) ----------------
PotEng   =  4.4274715e+04 Temp     =  1.2972966e+05 Press    = -2.6240902e+03 
---------------- Step      370 ----- CPU =      0.2339 (sec) ----------------
PotEng   =  3.6074373e+04 Temp     =  1.6013466e+05 Press    =  3.7244917e+03 
---------------- Step      380 ----- CPU =      0.2394 (sec) ----------------
PotEng   =  2.7741567e+04 Temp     =  1.7383407e+05 Press    =  8.1016349e+03 
---------------- Step      390 ----- CPU =      0.2449 (sec) ----------------
PotEng   =  2.4253004e+04 Temp     =  1.9729444e+05 Press    =  1.2607114e+04 
---------------- Step      400 ----- CPU =      0.2504 (sec) ----------------
PotEng   =  2.7936559e+04 Temp     =  1.8662562e+05 Press    =  1.0190021e+04 
---------------- Step      410 ----- CPU =      0.2559 (sec) ----------------
PotEng   =  3.3972572e+04 Temp     =  1.7117083e+05 Press    =  5.5744708e+03 
---------------- Step      420 ----- CPU =      0.2613 (sec) ----------------
PotEng   =  3.8654412e+04 Temp     =  1.6301149e+05 Press    =  2.2543057e+03 
---------------- Step      430 ----- CPU =      0.2669 (sec) ----------------
PotEng   =  4.4337515e+04 Temp     =  1.4854710e+05 Press    = -1.9677998e+03 
---------------- Step      440 ----- CPU =      0.2723 (sec) ----------------
PotEng   =  4.4612748e+04 Temp     =  1.4476596e+05 Press    = -3.0685485e+03 
---------------- Step      450 ----- CPU =      0.2778 (sec) ----------------
PotEng   =  4.0163608e+04 Temp     =  1.5013134e+05 Press    = -1.0642382e+03 
---------------- Step      460 ----- CPU =      0.2832 (sec) ----------------
PotEng   =  3.5270584e+04 Temp     =  1.5635971e+05 Press    =  1.5455829e+03 
---------------- Step      470 ----- CPU =      0.2887 (sec) ----------------
PotEng   =  3.4900352e+04 Temp     =  1.5412514e+05 Press    =  2.6148519e+03 
---------------- Step      480 ----- CPU =      0.2942 (sec) ----------------
PotEng   =  3.5186023e+04 Temp     =  1.5077778e+05 Press    =  2.9156746e+03 
---------------- Step      490 ----- CPU =      0.2996 (sec) ----------------
PotEng   =  3.4010377e+04 Temp     =  1.5032968e+05 Press    =  3.3132167e+03 
---------------- Step      500 ----- CPU =      0.3051 (sec) ----------------
PotEng   =  3.2990315e+04 Temp     =  1.4968027e+05 Press    =  3.1497811e+03 
---------------- Step      510 ----- CPU =      0.3105 (sec) ----------------
PotEng   =  3.6317156e+04 Temp     =  1.4108164e+05 Press    =  7.4140497e+02 
---------------- Step      520 ----- CPU =      0.3159 (sec) ----------------
PotEng   =  3.9952629e+04 Temp     =  1.3229951e+05 Press    = -1.7752225e+03 
---------------- Step      530 ----- CPU =      0.3214 (sec) ----------------
PotEng   =  4.0445705e+04 Temp     =  1.2993197e+05 Press    = -2.4638133e+03 
---------------- Step      540 ----- CPU =      0.3267 (sec) ----------------
PotEng   =  3.6761114e+04 Temp     =  1.3568609e+05 Press    = -1.2679916e+03 
---------------- Step      550 ----- CPU =      0.3321 (sec) ----------------
PotEng   =  3.3549660e+04 Temp     =  1.4080154e+05 Press    = -1.5705344e+02 
---------------- Step      560 ----- CPU =      0.3375 (sec) ----------------
PotEng   =  3.1337461e+04 Temp     =  1.5969257e+05 Press    =  3.3703017e+03 
---------------- Step      570 ----- CPU =      0.3429 (sec) ----------------
PotEng   =  2.9455570e+04 Temp     =  1.6202266e+05 Press    =  3.7840226e+03 
---------------- Step      580 ----- CPU =      0.3483 (sec) ----------------
PotEng   =  3.0200982e+04 Temp     =  1.5842198e+05 Press    =  2.8625855e+03 
---------------- Step      590 ----- CPU =      0.3537 (sec) ----------------
PotEng   =  3.4701006e+04 Temp     =  1.5688195e+05 Press    =  2.9666568e+03 
---------------- Step      600 ----- CPU =      0.3592 (sec) ----------------
PotEng   =  3.4935113e+04 Temp     =  1.5465726e+05 Press    =  3.2700662e+03 
---------------- Step      610 ----- CPU =      0.3645 (sec) ----------------
PotEng   =  3.0372854e+04 Temp     =  1.6190095e+05 Press    =  5.7693392e+03 
---------------- Step      620 ----- CPU =      0.3699 (sec) ----------------
PotEng   =  2.5439886e+04 Temp     =  1.6879105e+05 Press    =  8.5781399e+03 
---------------- Step      630 ----- CPU =      0.3753 (sec) ----------------
PotEng   =  2.3595725e+04 Temp     =  1.6946045e+05 Press    =  9.2519349e+03 
---------------- Step      640 ----- CPU =      0.3806 (sec) ----------------
PotEng   =  2.7760095e+04 Temp     =  1.5864354e+05 Press    =  6.6774219e+03 
---------------- Step      650 ----- CPU =      0.3860 (sec) ----------------
PotEng   =  3.3831115e+04 Temp     =  1.4446978e+05 Press    =  2.5659115e+03 
---------------- Step      660 ----- CPU =      0.3913 (sec) ----------------
PotEng   =  4.0875020e+04 Temp     =  1.2901348e+05 Press    = -1.3835682e+03 
---------------- Step      670 ----- CPU =      0.3967 (sec) ----------------
PotEng   =  4.4541813e+04 Temp     =  1.2055976e+05 Press    = -3.9574735e+03 
---------------- Step      680 ----- CPU =      0.4020 (sec) ----------------
PotEng   =  4.3329433e+04 Temp     =  1.2184050e+05 Press    = -4.4446610e+03 
---------------- Step      690 ----- CPU =      0.4074 (sec) ----------------
PotEng   =  3.8788992e+04 Temp     =  1.2973895e+05 Press    = -2.8331380e+03 
---------------- Step      700 ----- CPU =      0.4127 (sec) ----------------
PotEng   =  3.4086446e+04 Temp     =  1.3829362e+05 Press    = -5.8608632e+01 
---------------- Step      710 ----- CPU =      0.4181 (sec) ----------------
PotEng   =  2.8298185e+04 Temp     =  1.4900405e+05 Press    =  3.1259438e+03 
---------------- Step      720 ----- CPU =      0.4234 (sec) ----------------
PotEng   =  2.4444822e+04 Temp     =  1.5606713e+05 Press    =  5.3536459e+03 
---------------- Step      730 ----- CPU =      0.4287 (sec) ----------------
PotEng   =  2.3946042e+04 Temp     =  1.5670349e+05 Press    =  5.8044436e+03 
---------------- Step      740 ----- CPU =      0.4340 (sec) ----------------
PotEng   =  2.6388651e+04 Temp     =  1.5172191e+05 Press    =  4.1970729e+03 
---------------- Step      750 ----- CPU =      0.4393 (sec) ----------------
PotEng   =  2.9989786e+04 Temp     =  1.5185641e+05 Press    =  2.8579981e+03 
---------------- Step      760 ----- CPU =      0.4446 (sec) ----------------
PotEng   =  3.0777197e+04 Temp     =  1.4992393e+05 Press    =  1.4451175e+03 
---------------- Step      770 ----- CPU =      0.4499 (sec) ----------------
PotEng   =  2.9476925e+04 Temp     =  1.6373484e+05 Press    =  2.3880883e+03 
---------------- Step      780 ----- CPU =      0.4552 (sec) ----------------
PotEng   =  3.2361659e+04 Temp     =  1.5645130e+05 Press    =  7.4736326e+02 
---------------- Step      790 ----- CPU =      0.4605 (sec) ----------------
PotEng   =  3.4900514e+04 Temp     =  1.5097987e+05 Press    = -1.2341478e+03 
---------------- Step      800 ----- CPU =      0.4657 (sec) ----------------
PotEng   =  3.7026852e+04 Temp     =  1.4631687e+05 Press    = -2.8679052e+03 
---------------- Step      810 ----- CPU =      0.4710 (sec) ----------------
PotEng   =  3.5678915e+04 Temp     =  1.4824684e+05 Press    = -2.9088464e+03 
---------------- Step      820 ----- CPU =      0.4762 (sec) ----------------
PotEng   =  3.3243384e+04 Temp     =  1.5231248e+05 Press    = -1.6751897e+03 
---------------- Step      830 ----- CPU =      0.4814 (sec) ----------------
PotEng   =  3.1931374e+04 Temp     =  1.5398279e+05 Press    = -1.6370544e+02 
---------------- Step      840 ----- CPU =      0.4867 (sec) ----------------
PotEng   =  3.2856366e+04 Temp     =  1.5139735e+05 Press    =  1.1219803e+03 
---------------- Step      850 ----- CPU =      0.4918 (sec) ----------------
PotEng   =  3.4400171e+04 Temp     =  1.4760170e+05 Press    =  2.0697102e+03 
---------------- Step      860 ----- CPU =      0.4970 (sec) ----------------
PotEng   =  3.5544814e+04 Temp     =  1.4460532e+05 Press    =  2.5989536e+03 
---------------- Step      870 ----- CPU =      0.5022 (sec) ----------------
PotEng   =  3.7185372e+04 Temp     =  1.4082195e+05 Press    =  3.4349662e+03 
---------------- Step      880 ----- CPU =      0.5073 (sec) ----------------
PotEng   =  2.8239392e+04 Temp     =  1.5653226e+05 Press    =  6.7021157e+03 
---------------- Step      890 ----- CPU =      0.5125 (sec) ----------------
PotEng   =  2.3909843e+04 Temp     =  1.6417614e+05 Press    =  8.3825540e+03 
---------------- Step      900 ----- CPU =      0.5176 (sec) ----------------
PotEng   =  2.6142847e+04 Temp     =  1.5873377e+05 Press    =  6.5143751e+03 
---------------- Step      910 ----- CPU =      0.5227 (sec) ----------------
PotEng   =  3.3680075e+04 Temp     =  1.4334338e+05 Press    =  1.6429726e+03 
---------------- Step      920 ----- CPU =      0.5278 (sec) ----------------
PotEng   =  4.1147439e+04 Temp     =  1.2844107e+05 Press    = -3.4478169e+03 
---------------- Step      930 ----- CPU =      0.5328 (sec) ----------------
PotEng   =  4.0242937e+04 Temp     =  1.2964282e+05 Press    = -5.3365006e+03 
---------------- Step      940 ----- CPU =      0.5379 (sec) ----------------
PotEng   =  3.8365444e+04 Temp     =  1.3233883e+05 Press    = -4.5305085e+03 
---------------- Step      950 ----- CPU =      0.5430 (sec) ----------------
PotEng   =  2.9751829e+04 Temp     =  1.4865193e+05 Press    = -1.0743182e+03 
---------------- Step      960 ----- CPU =      0.5481 (sec) ----------------
PotEng   =  2.3994965e+04 Temp     =  1.5740091e+05 Press    =  1.0996675e+03 
---------------- Step      970 ----- CPU =      0.5531 (sec) ----------------
PotEng   =  2.3414423e+04 Temp     =  1.5788926e+05 Press    =  1.2387577e+03 
---------------- Step      980 ----- CPU =      0.5582 (sec) ----------------
PotEng   =  2.8000464e+04 Temp     =  1.5549568e+05 Press    =  1.1698347e+03 
---------------- Step      990 ----- CPU =      0.5632 (sec) ----------------
PotEng   =  3.0610694e+04 Temp     =  1.5020305e+05 Press    =  5.5441925e+02 
---------------- Step     1000 ----- CPU =      0.5682 (sec) ----------------
PotEng   =  3.1635222e+04 Temp     =  1.6053089e+05 Press    =  2.1093228e+03 
---------------- Step     1010 ----- CPU =      0.5732 (sec) ----------------
PotEng   =  2.6626543e+04 Temp     =  1.6987534e+05 Press    =  3.3248119e+03 
---------------- Step     1020 ----- CPU =      0.5781 (sec) ----------------
PotEng   =  3.0779447e+04 Temp     =  1.7902072e+05 Press    =  5.4815425e+03 
---------------- Step     1030 ----- CPU =      0.5830 (sec) ----------------
PotEng   =  3.2375573e+04 Temp     =  1.7407995e+05 Press    =  4.9087038e+03 
---------------- Step     1040 ----- CPU =      0.5880 (sec) ----------------
PotEng   =  3.0871372e+04 Temp     =  1.7142416e+05 Press    =  3.7911263e+03 
---------------- Step     1050 ----- CPU =      0.5929 (sec) ----------------
PotEng   =  3.2891589e+04 Temp     =  1.6417102e+05 Press    =  2.1674969e+03 
---------------- Step     1060 ----- CPU =      0.5978 (sec) ----------------
PotEng   =  3.4499703e+04 Temp     =  1.5818369e+05 Press    =  3.5734888e+02 
---------------- Step     1070 ----- CPU =      0.6026 (sec) ----------------
PotEng   =  3.5200406e+04 Temp     =  1.5486043e+05 Press    = -1.3496394e+03 
---------------- Step     1080 ----- CPU =      0.6075 (sec) ----------------
PotEng   =  3.8259028e+04 Temp     =  1.5122814e+05 Press    = -2.4351928e+03 
---------------- Step     1090 ----- CPU =      0.6124 (sec) ----------------
PotEng   =  3.9780647e+04 Temp     =  1.4606041e+05 Press    = -3.2710909e+03 
---------------- Step     1100 ----- CPU =      0.6173 (sec) ----------------
PotEng   =  3.8945281e+04 Temp     =  1.4563218e+05 Press    = -2.9875946e+03 
---------------- Step     1110 ----- CPU =      0.6222 (sec) ----------------
PotEng   =  3.4647881e+04 Temp     =  1.5189575e+05 Press    = -1.4841743e+03 
---------------- Step     1120 ----- CPU =      0.6270 (sec) ----------------
PotEng   =  2.8845896e+04 Temp     =  1.6292896e+05 Press    =  6.7896228e+02 
---------------- Step     1130 ----- CPU =      0.6319 (sec) ----------------
PotEng   =  2.6391981e+04 Temp     =  1.6536005e+05 Press    =  1.6484061e+03 
---------------- Step     1140 ----- CPU =      0.6367 (sec) ----------------
PotEng   =  2.8507701e+04 Temp     =  1.5990329e+05 Press    =  1.0460062e+03 
---------------- Step     1150 ----- CPU =      0.6416 (sec) ----------------
PotEng   =  3.0986268e+04 Temp     =  1.5325217e+05 Press    = -7.4637518e+02 
---------------- Step     1160 ----- CPU =      0.6464 (sec) ----------------
PotEng   =  3.7016968e+04 Temp     =  1.5086281e+05 Press    = -1.9881433e+03 
---------------- Step     1170 ----- CPU =      0.6512 (sec) ----------------
PotEng   =  3.4981674e+04 Temp     =  1.5396477e+05 Press    = -2.5092750e+03 
---------------- Step     1180 ----- CPU =      0.6560 (sec) ----------------
PotEng   =  3.6383456e+04 Temp     =  1.4907868e+05 Press    = -2.1304429e+03 
---------------- Step     1190 ----- CPU =      0.6608 (sec) ----------------
PotEng   =  2.8475239e+04 Temp     =  1.6034660e+05 Press    =  1.3382267e+02 
---------------- Step     1200 ----- CPU =      0.6656 (sec) ----------------
PotEng   =  2.8617424e+04 Temp     =  1.6858759e+05 Press    =  3.6821354e+03 
---------------- Step     1210 ----- CPU =      0.6704 (sec) ----------------
PotEng   =  2.6652118e+04 Temp     =  1.6993205e+05 Press    =  5.6331082e+03 
---------------- Step     1220 ----- CPU =      0.6752 (sec) ----------------
PotEng   =  2.7344512e+04 Temp     =  1.6603573e+05 Press    =  5.9477332e+03 
---------------- Step     1230 ----- CPU =      0.6800 (sec) ----------------
PotEng   =  2.9106458e+04 Temp     =  1.6005696e+05 Press    =  5.2299532e+03 
---------------- Step     1240 ----- CPU =      0.6848 (sec) ----------------
PotEng   =  3.1050308e+04 Temp     =  1.5387512e+05 Press    =  4.3494560e+03 
---------------- Step     1250 ----- CPU =      0.6896 (sec) ----------------
PotEng   =  2.9829873e+04 Temp     =  1.5381108e+05 Press    =  3.8178673e+03 
---------------- Step     1260 ----- CPU =      0.6943 (sec) ----------------
PotEng   =  2.8461642e+04 Temp     =  1.5417458e+05 Press    =  2.8208078e+03 
---------------- Step     1270 ----- CPU =      0.6991 (sec) ----------------
PotEng   =  2.8966025e+04 Temp     =  1.5120573e+05 Press    =  8.7539324e+02 
---------------- Step     1280 ----- CPU =      0.7039 (sec) ----------------
PotEng   =  2.9742834e+04 Temp     =  1.4806433e+05 Press    = -1.2922396e+03 
---------------- Step     1290 ----- CPU =      0.7086 (sec) ----------------
PotEng   =  3.1117837e+04 Temp     =  1.4453792e+05 Press    = -2.5723246e+03 
---------------- Step     1300 ----- CPU =      0.7133 (sec) ----------------
PotEng   =  3.1494450e+04 Temp     =  1.4255973e+05 Press    = -2.8491847e+03 
---------------- Step     1310 ----- CPU =      0.7181 (sec) ----------------
PotEng   =  3.0915624e+04 Temp     =  1.4261075e+05 Press    = -2.0339979e+03 
---------------- Step     1320 ----- CPU =      0.7228 (sec) ----------------
PotEng   =  2.9236640e+04 Temp     =  1.4489817e+05 Press    = -3.7175019e+02 
---------------- Step     1330 ----- CPU =      0.7276 (sec) ----------------
PotEng   =  2.9323152e+04 Temp     =  1.4399007e+05 Press    =  1.3295248e+03 
---------------- Step     1340 ----- CPU =      0.7322 (sec) ----------------
PotEng   =  2.9136672e+04 Temp     =  1.4371141e+05 Press    =  2.8897391e+03 
---------------- Step     1350 ----- CPU =      0.7369 (sec) ----------------
PotEng   =  2.6383086e+04 Temp     =  1.4875568e+05 Press    =  4.4809677e+03 
---------------- Step     1360 ----- CPU =      0.7417 (sec) ----------------
PotEng   =  4.9944359e+04 Temp     =  1.0125308e+06 Press    =  9.3715272e+04 
---------------- Step     1370 ----- CPU =      0.7464 (sec) ----------------
PotEng   =  1.2807297e+05 Temp     =  7.6840095e+05 Press    =  4.4487121e+04 
---------------- Step     1380 ----- CPU =      0.7524 (sec) ----------------
PotEng   =  2.4606590e+05 Temp     =  4.9487100e+05 Press    = -1.4739818e+04 
---------------- Step     1390 ----- CPU =      0.7571 (sec) ----------------
PotEng   =  3.3821980e+05 Temp     =  2.9351031e+05 Press    = -5.7216378e+04 
---------------- Step     1400 ----- CPU =      0.7618 (sec) ----------------
PotEng   =  3.5052917e+05 Temp     =  2.5313676e+05 Press    = -6.5162296e+04 
---------------- Step     1410 ----- CPU =      0.7665 (sec) ----------------
PotEng   =  2.8751739e+05 Temp     =  3.5232241e+05 Press    = -4.1382658e+04 
---------------- Step     1420 ----- CPU =      0.7711 (sec) ----------------
PotEng   =  1.9761650e+05 Temp     =  4.8866943e+05 Press    = -5.8494326e+03 
---------------- Step     1430 ----- CPU =      0.7758 (sec) ----------------
PotEng   =  1.3193504e+05 Temp     =  5.6210286e+05 Press    =  1.8563018e+04 
---------------- Step     1440 ----- CPU =      0.7805 (sec) ----------------
PotEng   =  8.4312934e+04 Temp     =  5.9060312e+05 Press    =  3.0467577e+04 
---------------- Step     1450 ----- CPU =      0.7851 (sec) ----------------
PotEng   =  9.4934385e+04 Temp     =  5.1053083e+05 Press    =  2.0089090e+04 
---------------- Step     1460 ----- CPU =      0.7898 (sec) ----------------
PotEng   =  1.4603459e+05 Temp     =  3.7040413e+05 Press    = -6.2490400e+03 
---------------- Step     1470 ----- CPU =      0.7945 (sec) ----------------
PotEng   =  2.0863802e+05 Temp     =  2.2849188e+05 Press    = -3.1827406e+04 
---------------- Step     1480 ----- CPU =      0.7991 (sec) ----------------
PotEng   =  2.3188315e+05 Temp     =  1.7047748e+05 Press    = -4.1453342e+04 
---------------- Step     1490 ----- CPU =      0.8037 (sec) ----------------
PotEng   =  2.0699189e+05 Temp     =  2.1241124e+05 Press    = -3.1328938e+04 
---------------- Step     1500 ----- CPU =      0.8084 (sec) ----------------
PotEng   =  1.4842037e+05 Temp     =  3.0571930e+05 Press    = -8.4575508e+03 
---------------- Step     1510 ----- CPU =      0.8130 (sec) ----------------
PotEng   =  8.4736575e+04 Temp     =  3.9893097e+05 Press    =  1.4834175e+04 
---------------- Step     1520 ----- CPU =      0.8176 (sec) ----------------
PotEng   =  5.2568852e+04 Temp     =  4.4486186e+05 Press    =  2.6940578e+04 
---------------- Step     1530 ----- CPU =      0.8223 (sec) ----------------
PotEng   =  5.9565984e+04 Temp     =  3.9052117e+05 Press    =  2.0790986e+04 
---------------- Step     1540 ----- CPU =      0.8269 (sec) ----------------
PotEng   =  7.4371834e+04 Temp     =  3.2803126e+05 Press    =  1.0687989e+04 
---------------- Step     1550 ----- CPU =      0.8315 (sec) ----------------
PotEng   =  8.0331933e+04 Temp     =  2.8292717e+05 Press    =  1.4222160e+03 
---------------- Step     1560 ----- CPU =      0.8361 (sec) ----------------
PotEng   =  9.5543616e+04 Temp     =  2.3988633e+05 Press    = -5.7903267e+03 
---------------- Step     1570 ----- CPU =      0.8408 (sec) ----------------
PotEng   =  9.3787893e+04 Temp     =  2.2515085e+05 Press    = -7.5452438e+03 
---------------- Step     1580 ----- CPU =      0.8454 (sec) ----------------
PotEng   =  8.7739944e+04 Temp     =  2.2445064e+05 Press    = -6.5512654e+03 
---------------- Step     1590 ----- CPU =      0.8500 (sec) ----------------
PotEng   =  8.7725935e+04 Temp     =  2.0858758e+05 Press    = -6.5835801e+03 
---------------- Step     1600 ----- CPU =      0.8546 (sec) ----------------
PotEng   =  8.1412693e+04 Temp     =  2.0690013e+05 Press    = -3.6299974e+03 
---------------- Step     1610 ----- CPU =      0.8592 (sec) ----------------
PotEng   =  7.0298485e+04 Temp     =  2.1393993e+05 Press    =  4.6205179e+02 
---------------- Step     1620 ----- CPU =      0.8638 (sec) ----------------
PotEng   =  5.9431153e+04 Temp     =  2.1952535e+05 Press    =  3.1550130e+03 
---------------- Step     1630 ----- CPU =      0.8685 (sec) ----------------
PotEng   =  5.8819804e+04 Temp     =  2.0783265e+05 Press    =  4.1465424e+03 
---------------- Step     1640 ----- CPU =      0.8731 (sec) ----------------
PotEng   =  5.0003705e+04 Temp     =  2.1113516e+05 Press    =  6.2040365e+03 
---------------- Step     1650 ----- CPU =      0.8776 (sec) ----------------
PotEng   =  4.8220345e+04 Temp     =  2.0265446e+05 Press    =  6.5229328e+03 
---------------- Step     1660 ----- CPU =      0.8822 (sec) ----------------
PotEng   =  4.3810813e+04 Temp     =  2.0485063e+05 Press    =  6.5208005e+03 
---------------- Step     1670 ----- CPU =      0.8868 (sec) ----------------
PotEng   =  4.9759405e+04 Temp     =  1.8103330e+05 Press    =  2.9604054e+03 
---------------- Step     1680 ----- CPU =      0.8914 (sec) ----------------
PotEng   =  5.2079843e+04 Temp     =  1.6645155e+05 Press    = -4.6983494e+02 
---------------- Step     1690 ----- CPU =      0.8960 (sec) ----------------
PotEng   =  5.8272576e+04 Temp     =  1.5655804e+05 Press    = -3.0963417e+03 
---------------- Step     1700 ----- CPU =      0.9006 (sec) ----------------
PotEng   =  5.9207602e+04 Temp     =  1.4716866e+05 Press    = -4.8762406e+03 
---------------- Step     1710 ----- CPU =      0.9052 (sec) ----------------
PotEng   =  4.9686462e+04 Temp     =  1.5785026e+05 Press    = -3.0544721e+03 
---------------- Step     1720 ----- CPU =      0.9098 (sec) ----------------
PotEng   =  3.7502701e+04 Temp     =  1.7317781e+05 Press    = -2.6440370e+02 
---------------- Step     1730 ----- CPU =      0.9144 (sec) ----------------
PotEng   =  3.3901281e+04 Temp     =  1.8873381e+05 Press    =  1.9679826e+03 
---------------- Step     1740 ----- CPU =      0.9189 (sec) ----------------
PotEng   =  3.8950429e+04 Temp     =  1.7069090e+05 Press    = -7.1147358e+02 
---------------- Step     1750 ----- CPU =      0.9235 (sec) ----------------
PotEng   =  4.4391793e+04 Temp     =  1.5278684e+05 Press    = -3.8117884e+03 
---------------- Step     1760 ----- CPU =      0.9281 (sec) ----------------
PotEng   =  4.8792463e+04 Temp     =  1.3840328e+05 Press    = -4.7367153e+03 
---------------- Step     1770 ----- CPU =      0.9327 (sec) ----------------
PotEng   =  4.4257297e+04 Temp     =  1.3944823e+05 Press    = -3.0205762e+03 
---------------- Step     1780 ----- CPU =      0.9372 (sec) ----------------
PotEng   =  3.5055690e+04 Temp     =  1.5590711e+05 Press    =  4.1347822e+02 
---------------- Step     1790 ----- CPU =      0.9418 (sec) ----------------
PotEng   =  2.2599676e+04 Temp     =  1.7262100e+05 Press    =  4.5386506e+03 
---------------- Step     1800 ----- CPU =      0.9464 (sec) ----------------
PotEng   =  1.8873221e+04 Temp     =  1.7253298e+05 Press    =  5.1963407e+03 
---------------- Step     1810 ----- CPU =      0.9509 (sec) ----------------
PotEng   =  2.5081862e+04 Temp     =  1.5827749e+05 Press    =  2.6648495e+03 
---------------- Step     1820 ----- CPU =      0.9555 (sec) ----------------
PotEng   =  3.5364520e+04 Temp     =  1.6789623e+05 Press    =  2.0255457e+03 
---------------- Step     1830 ----- CPU =      0.9600 (sec) ----------------
PotEng   =  4.3256096e+04 Temp     =  1.4746148e+05 Press    = -5.2532582e+02 
---------------- Step     1840 ----- CPU =      0.9646 (sec) ----------------
PotEng   =  4.3134881e+04 Temp     =  1.4257074e+05 Press    = -1.2675903e+03 
---------------- Step     1850 ----- CPU =      0.9691 (sec) ----------------
PotEng   =  3.6650996e+04 Temp     =  1.6328469e+05 Press    =  5.8353905e+02 
---------------- Step     1860 ----- CPU =      0.9737 (sec) ----------------
PotEng   =  3.1421558e+04 Temp     =  1.6835264e+05 Press    =  2.1170700e+03 
---------------- Step     1870 ----- CPU =      0.9782 (sec) ----------------
PotEng   =  2.9289393e+04 Temp     =  1.7121605e+05 Press    =  2.9991097e+03 
---------------- Step     1880 ----- CPU =      0.9828 (sec) ----------------
PotEng   =  3.5873156e+04 Temp     =  1.5282230e+05 Press    =  5.0053740e+02 
---------------- Step     1890 ----- CPU =      0.9873 (sec) ----------------
PotEng   =  4.3841050e+04 Temp     =  1.3284248e+05 Press    = -2.9048373e+03 
---------------- Step     1900 ----- CPU =      0.9919 (sec) ----------------
PotEng   =  4.5598695e+04 Temp     =  1.2530534e+05 Press    = -4.1445364e+03 
---------------- Step     1910 ----- CPU =      0.9964 (sec) ----------------
PotEng   =  4.5422098e+04 Temp     =  1.2217656e+05 Press    = -3.9871562e+03 
---------------- Step     1920 ----- CPU =      1.0010 (sec) ----------------
PotEng   =  4.0287136e+04 Temp     =  1.2883004e+05 Press    = -2.0721865e+03 
---------------- Step     1930 ----- CPU =      1.0055 (sec) ----------------
PotEng   =  2.8454554e+04 Temp     =  1.4739394e+05 Press    =  1.6529022e+03 
---------------- Step     1940 ----- CPU =      1.0101 (sec) ----------------
PotEng   =  2.5648873e+04 Temp     =  9.2739227e+05 Press    =  7.9071914e+04 
---------------- Step     1950 ----- CPU =      1.0146 (sec) ----------------
PotEng   =  8.3954852e+04 Temp     =  7.1487074e+05 Press    =  4.3252150e+04 
---------------- Step     1960 ----- CPU =      1.0192 (sec) ----------------
PotEng   =  1.8321029e+05 Temp     =  4.5261518e+05 Press    = -5.8738710e+03 
---------------- Step     1970 ----- CPU =      1.0237 (sec) ----------------
PotEng   =  2.6571098e+05 Temp     =  2.5930434e+05 Press    = -4.2746947e+04 
---------------- Step     1980 ----- CPU =      1.0282 (sec) ----------------
PotEng   =  2.9141944e+05 Temp     =  1.9996026e+05 Press    = -5.4846655e+04 
---------------- Step     1990 ----- CPU =      1.0328 (sec) ----------------
PotEng   =  2.6101525e+05 Temp     =  2.4064772e+05 Press    = -4.4188536e+04 
---------------- Step     2000 ----- CPU =      1.0373 (sec) ----------------
PotEng   =  1.9493274e+05 Temp     =  3.4145844e+05 Press    = -2.0339167e+04 
Loop time of 1.03729 on 5 procs for 2000 steps with 180 atoms

Performance: 8.126 ns/day, 2.953 hours/ns, 1928.094 timesteps/s
497.1% CPU use with 1 MPI tasks x 5 OpenMP threads

MPI task timing breakdown:
Section |  min time  |  avg time  |  max time  |%varavg| %total
---------------------------------------------------------------
Pair    | 0.40824    | 0.40824    | 0.40824    |   0.0 | 39.36
Bond    | 0.0064853  | 0.0064853  | 0.0064853  |   0.0 |  0.63
Kspace  | 0.36401    | 0.36401    | 0.36401    |   0.0 | 35.09
Neigh   | 0.01878    | 0.01878    | 0.01878    |   0.0 |  1.81
Comm    | 0.011317   | 0.011317   | 0.011317   |   0.0 |  1.09
Output  | 0.00095037 | 0.00095037 | 0.00095037 |   0.0 |  0.09
Modify  | 0.22605    | 0.22605    | 0.22605    |   0.0 | 21.79
Other   |            | 0.00146    |            |       |  0.14

Nlocal:    180 ave 180 max 180 min
Histogram: 1 0 0 0 0 0 0 0 0 0
Nghost:    926 ave 926 max 926 min
Histogram: 1 0 0 0 0 0 0 0 0 0
Neighs:    3977 ave 3977 max 3977 min
Histogram: 1 0 0 0 0 0 0 0 0 0

Total # of neighbors = 3977
Ave neighs/atom = 22.0944
Ave special neighs/atom = 3.5
Neighbor list builds = 198
Dangerous builds = 190

#restart thermo
reset_timestep  0
thermo          10
thermo_style    custom pe temp press
WARNING: New thermo_style command, previous thermo_modify settings will be lost (../output.cpp:705)
thermo_modify   line multi norm no format float %14.7e

#setup trajectory output
dump            myDump all custom 10 /home/mnguyen/bin/PECG/test_PAAf0.5_implicitSol_NPT/tmpXd2UeS1.trj.lammpstrj id type x y z mol
dump_modify     myDump element A- A
dump_modify     myDump sort id
dump_modify     myDump format line  "%d %d %14.7e %14.7e %14.7e %d"

#run production
run             2000
PPPM initialization ...
  using 12-bit tables for long-range coulomb (../kspace.cpp:321)
  G vector (1/distance) = 0.0984493
  grid = 9 9 9
  stencil order = 5
  estimated absolute RMS force accuracy = 0.0197916
  estimated relative force accuracy = 5.96018e-05
  using double precision FFTs
  3d grid and FFT values/proc = 2744 729
No /omp style for force computation currently active
WARNING: Inconsistent image flags (../domain.cpp:782)
Per MPI rank memory allocation (min/avg/max) = 13.52 | 13.52 | 13.52 Mbytes
---------------- Step        0 ----- CPU =      0.0000 (sec) ----------------
PotEng   =  1.9494205e+05 Temp     =  3.4145844e+05 Press    = -2.0334517e+04 
---------------- Step       10 ----- CPU =      0.0153 (sec) ----------------
PotEng   =  1.3646588e+05 Temp     =  4.1669832e+05 Press    =  5.4903722e+02 
---------------- Step       20 ----- CPU =      0.0247 (sec) ----------------
PotEng   =  9.9369315e+04 Temp     =  4.4267839e+05 Press    =  1.2272743e+04 
---------------- Step       30 ----- CPU =      0.0313 (sec) ----------------
PotEng   =  7.8978154e+04 Temp     =  4.3262066e+05 Press    =  1.5038290e+04 
---------------- Step       40 ----- CPU =      0.0371 (sec) ----------------
PotEng   =  8.3498959e+04 Temp     =  3.7722992e+05 Press    =  7.3653196e+03 
---------------- Step       50 ----- CPU =      0.0426 (sec) ----------------
PotEng   =  1.0555966e+05 Temp     =  3.0138052e+05 Press    = -1.9806917e+03 
---------------- Step       60 ----- CPU =      0.0481 (sec) ----------------
PotEng   =  1.0968797e+05 Temp     =  2.7300866e+05 Press    = -4.1781614e+03 
---------------- Step       70 ----- CPU =      0.0536 (sec) ----------------
PotEng   =  9.5643650e+04 Temp     =  2.7417581e+05 Press    = -1.6036398e+03 
---------------- Step       80 ----- CPU =      0.0591 (sec) ----------------
PotEng   =  7.8104124e+04 Temp     =  2.9308846e+05 Press    =  5.1268220e+03 
---------------- Step       90 ----- CPU =      0.0646 (sec) ----------------
PotEng   =  4.7648826e+04 Temp     =  3.2747828e+05 Press    =  1.2698681e+04 
---------------- Step      100 ----- CPU =      0.0701 (sec) ----------------
PotEng   =  4.9001880e+04 Temp     =  2.9660530e+05 Press    =  9.8241044e+03 
---------------- Step      110 ----- CPU =      0.0756 (sec) ----------------
PotEng   =  7.2890226e+04 Temp     =  2.3485430e+05 Press    = -8.5577661e+02 
---------------- Step      120 ----- CPU =      0.0810 (sec) ----------------
PotEng   =  1.0398950e+05 Temp     =  1.7152652e+05 Press    = -1.2095648e+04 
---------------- Step      130 ----- CPU =      0.0865 (sec) ----------------
PotEng   =  1.1047060e+05 Temp     =  1.4778884e+05 Press    = -1.6381168e+04 
---------------- Step      140 ----- CPU =      0.0920 (sec) ----------------
PotEng   =  9.4591237e+04 Temp     =  1.6731091e+05 Press    = -1.2916686e+04 
---------------- Step      150 ----- CPU =      0.0976 (sec) ----------------
PotEng   =  6.9340283e+04 Temp     =  2.0318326e+05 Press    = -5.3542282e+03 
---------------- Step      160 ----- CPU =      0.1030 (sec) ----------------
PotEng   =  4.7145273e+04 Temp     =  2.6968926e+05 Press    =  5.9770192e+03 
---------------- Step      170 ----- CPU =      0.1085 (sec) ----------------
PotEng   =  3.5811557e+04 Temp     =  2.7156027e+05 Press    =  9.3920953e+03 
---------------- Step      180 ----- CPU =      0.1140 (sec) ----------------
PotEng   =  3.6580779e+04 Temp     =  2.4960493e+05 Press    =  8.0303190e+03 
---------------- Step      190 ----- CPU =      0.1195 (sec) ----------------
PotEng   =  3.7448284e+04 Temp     =  2.2944727e+05 Press    =  6.3902147e+03 
---------------- Step      200 ----- CPU =      0.1250 (sec) ----------------
PotEng   =  3.7467324e+04 Temp     =  2.1216041e+05 Press    =  3.9746722e+03 
---------------- Step      210 ----- CPU =      0.1305 (sec) ----------------
PotEng   =  4.1558220e+04 Temp     =  1.9000959e+05 Press    =  7.0031048e+02 
---------------- Step      220 ----- CPU =      0.1360 (sec) ----------------
PotEng   =  4.7433396e+04 Temp     =  1.7329774e+05 Press    = -2.2681340e+03 
---------------- Step      230 ----- CPU =      0.1415 (sec) ----------------
PotEng   =  5.6655526e+04 Temp     =  1.4502365e+05 Press    = -5.8570654e+03 
---------------- Step      240 ----- CPU =      0.1470 (sec) ----------------
PotEng   =  6.2272833e+04 Temp     =  1.2681464e+05 Press    = -7.2107037e+03 
---------------- Step      250 ----- CPU =      0.1524 (sec) ----------------
PotEng   =  5.6825547e+04 Temp     =  1.3050062e+05 Press    = -5.1134920e+03 
---------------- Step      260 ----- CPU =      0.1579 (sec) ----------------
PotEng   =  4.2232788e+04 Temp     =  2.1695324e+05 Press    =  6.0536689e+03 
---------------- Step      270 ----- CPU =      0.1633 (sec) ----------------
PotEng   =  3.1295483e+04 Temp     =  2.2615320e+05 Press    =  8.7896487e+03 
---------------- Step      280 ----- CPU =      0.1688 (sec) ----------------
PotEng   =  3.1173021e+04 Temp     =  2.1377535e+05 Press    =  7.1951298e+03 
---------------- Step      290 ----- CPU =      0.1743 (sec) ----------------
PotEng   =  3.8264365e+04 Temp     =  8.6815834e+05 Press    =  6.6801274e+04 
---------------- Step      300 ----- CPU =      0.1798 (sec) ----------------
PotEng   =  8.2627039e+04 Temp     =  6.9884752e+05 Press    =  3.9286585e+04 
---------------- Step      310 ----- CPU =      0.1852 (sec) ----------------
PotEng   =  1.6117878e+05 Temp     =  4.6932171e+05 Press    = -1.3592860e+03 
---------------- Step      320 ----- CPU =      0.1907 (sec) ----------------
PotEng   =  2.3412451e+05 Temp     =  2.9634611e+05 Press    = -3.3538620e+04 
---------------- Step      330 ----- CPU =      0.1961 (sec) ----------------
PotEng   =  2.6614750e+05 Temp     =  2.5428047e+05 Press    = -4.2235122e+04 
---------------- Step      340 ----- CPU =      0.2015 (sec) ----------------
PotEng   =  2.3628312e+05 Temp     =  2.8529308e+05 Press    = -3.3188852e+04 
---------------- Step      350 ----- CPU =      0.2070 (sec) ----------------
PotEng   =  1.7622838e+05 Temp     =  3.6649554e+05 Press    = -1.2916352e+04 
---------------- Step      360 ----- CPU =      0.2124 (sec) ----------------
PotEng   =  1.2159928e+05 Temp     =  4.2817790e+05 Press    =  4.4839973e+03 
---------------- Step      370 ----- CPU =      0.2178 (sec) ----------------
PotEng   =  9.5486057e+04 Temp     =  4.2898400e+05 Press    =  1.1589519e+04 
---------------- Step      380 ----- CPU =      0.2232 (sec) ----------------
PotEng   =  7.3746396e+04 Temp     =  4.2103991e+05 Press    =  1.3778289e+04 
---------------- Step      390 ----- CPU =      0.2286 (sec) ----------------
PotEng   =  8.8002883e+04 Temp     =  3.4869944e+05 Press    =  4.1607570e+03 
---------------- Step      400 ----- CPU =      0.2340 (sec) ----------------
PotEng   =  1.1741838e+05 Temp     =  2.6023986e+05 Press    = -9.4285411e+03 
---------------- Step      410 ----- CPU =      0.2394 (sec) ----------------
PotEng   =  1.3552057e+05 Temp     =  3.1614933e+05 Press    = -7.9809782e+03 
---------------- Step      420 ----- CPU =      0.2448 (sec) ----------------
PotEng   =  1.4479982e+05 Temp     =  2.7289885e+05 Press    = -1.2509102e+04 
---------------- Step      430 ----- CPU =      0.2502 (sec) ----------------
PotEng   =  1.3316528e+05 Temp     =  2.7554198e+05 Press    = -9.9449704e+03 
---------------- Step      440 ----- CPU =      0.2556 (sec) ----------------
PotEng   =  1.0356051e+05 Temp     =  3.2975137e+05 Press    = -1.0359735e+02 
---------------- Step      450 ----- CPU =      0.2610 (sec) ----------------
PotEng   =  8.3602723e+04 Temp     =  3.3810282e+05 Press    =  5.0788496e+03 
---------------- Step      460 ----- CPU =      0.2664 (sec) ----------------
PotEng   =  7.4176889e+04 Temp     =  3.2254777e+05 Press    =  5.3230414e+03 
---------------- Step      470 ----- CPU =      0.2717 (sec) ----------------
PotEng   =  7.9787039e+04 Temp     =  2.8267531e+05 Press    =  1.2737914e+03 
---------------- Step      480 ----- CPU =      0.2771 (sec) ----------------
PotEng   =  8.6339115e+04 Temp     =  2.4708813e+05 Press    = -2.0887364e+03 
---------------- Step      490 ----- CPU =      0.2825 (sec) ----------------
PotEng   =  8.3471801e+04 Temp     =  2.3373422e+05 Press    = -2.9177804e+03 
---------------- Step      500 ----- CPU =      0.2879 (sec) ----------------
PotEng   =  7.7286771e+04 Temp     =  2.2654713e+05 Press    = -3.1560707e+03 
---------------- Step      510 ----- CPU =      0.2932 (sec) ----------------
PotEng   =  7.0218272e+04 Temp     =  2.2124350e+05 Press    = -2.1173338e+03 
---------------- Step      520 ----- CPU =      0.3018 (sec) ----------------
PotEng   =  5.8442016e+04 Temp     =  2.3773789e+05 Press    =  5.5904631e+02 
---------------- Step      530 ----- CPU =      0.3072 (sec) ----------------
PotEng   =  5.8753812e+04 Temp     =  2.3956081e+05 Press    =  1.8306883e+03 
---------------- Step      540 ----- CPU =      0.3126 (sec) ----------------
PotEng   =  6.0212615e+04 Temp     =  2.1730059e+05 Press    =  4.1502935e+02 
---------------- Step      550 ----- CPU =      0.3180 (sec) ----------------
PotEng   =  5.5237803e+04 Temp     =  2.0948903e+05 Press    =  4.9139132e+02 
---------------- Step      560 ----- CPU =      0.3233 (sec) ----------------
PotEng   =  4.9249374e+04 Temp     =  2.0473520e+05 Press    =  1.2588307e+03 
---------------- Step      570 ----- CPU =      0.3287 (sec) ----------------
PotEng   =  4.1019825e+04 Temp     =  2.0434448e+05 Press    =  2.4139027e+03 
---------------- Step      580 ----- CPU =      0.3340 (sec) ----------------
PotEng   =  3.8773604e+04 Temp     =  1.9321672e+05 Press    =  1.7738447e+03 
---------------- Step      590 ----- CPU =      0.3394 (sec) ----------------
PotEng   =  4.0108937e+04 Temp     =  1.7794581e+05 Press    =  6.8142306e+02 
---------------- Step      600 ----- CPU =      0.3447 (sec) ----------------
PotEng   =  4.2891271e+04 Temp     =  1.6102715e+05 Press    = -1.0725423e+03 
---------------- Step      610 ----- CPU =      0.3501 (sec) ----------------
PotEng   =  4.6757902e+04 Temp     =  1.4377127e+05 Press    = -2.8447410e+03 
---------------- Step      620 ----- CPU =      0.3554 (sec) ----------------
PotEng   =  4.2295540e+04 Temp     =  1.4441947e+05 Press    = -2.5791603e+03 
---------------- Step      630 ----- CPU =      0.3608 (sec) ----------------
PotEng   =  4.2975682e+04 Temp     =  1.3649399e+05 Press    = -1.2195034e+03 
---------------- Step      640 ----- CPU =      0.3661 (sec) ----------------
PotEng   =  4.2651085e+04 Temp     =  9.6490952e+05 Press    =  7.4144529e+04 
---------------- Step      650 ----- CPU =      0.3715 (sec) ----------------
PotEng   =  9.3722483e+04 Temp     =  7.5109013e+05 Press    =  4.2455152e+04 
---------------- Step      660 ----- CPU =      0.3768 (sec) ----------------
PotEng   =  1.9073171e+05 Temp     =  4.7492723e+05 Press    = -2.1459674e+03 
---------------- Step      670 ----- CPU =      0.3821 (sec) ----------------
PotEng   =  2.7097029e+05 Temp     =  2.7658029e+05 Press    = -3.6265431e+04 
---------------- Step      680 ----- CPU =      0.3874 (sec) ----------------
PotEng   =  2.9721854e+05 Temp     =  2.0917442e+05 Press    = -4.6459442e+04 
---------------- Step      690 ----- CPU =      0.3928 (sec) ----------------
PotEng   =  2.5617352e+05 Temp     =  2.6379002e+05 Press    = -3.4543600e+04 
---------------- Step      700 ----- CPU =      0.3981 (sec) ----------------
PotEng   =  1.8811137e+05 Temp     =  3.6081875e+05 Press    = -1.3347836e+04 
---------------- Step      710 ----- CPU =      0.4033 (sec) ----------------
PotEng   =  1.3561339e+05 Temp     =  4.1709866e+05 Press    =  2.3310036e+03 
---------------- Step      720 ----- CPU =      0.4086 (sec) ----------------
PotEng   =  1.0515706e+05 Temp     =  4.2526393e+05 Press    =  9.0332949e+03 
---------------- Step      730 ----- CPU =      0.4139 (sec) ----------------
PotEng   =  8.9150383e+04 Temp     =  4.0367182e+05 Press    =  8.9868867e+03 
---------------- Step      740 ----- CPU =      0.4193 (sec) ----------------
PotEng   =  1.0417538e+05 Temp     =  3.3050099e+05 Press    = -1.4675396e+02 
---------------- Step      750 ----- CPU =      0.4246 (sec) ----------------
PotEng   =  1.2681894e+05 Temp     =  2.5471508e+05 Press    = -9.5624647e+03 
---------------- Step      760 ----- CPU =      0.4299 (sec) ----------------
PotEng   =  1.2949419e+05 Temp     =  2.2491274e+05 Press    = -1.1968200e+04 
---------------- Step      770 ----- CPU =      0.4352 (sec) ----------------
PotEng   =  1.1586089e+05 Temp     =  2.2887156e+05 Press    = -7.6723726e+03 
---------------- Step      780 ----- CPU =      0.4404 (sec) ----------------
PotEng   =  9.3225595e+04 Temp     =  2.4885241e+05 Press    = -1.9956148e+02 
---------------- Step      790 ----- CPU =      0.4457 (sec) ----------------
PotEng   =  5.0821896e+04 Temp     =  3.1157390e+05 Press    =  1.2152860e+04 
---------------- Step      800 ----- CPU =      0.4510 (sec) ----------------
PotEng   =  3.1667522e+04 Temp     =  3.1242599e+05 Press    =  1.5537162e+04 
---------------- Step      810 ----- CPU =      0.4563 (sec) ----------------
PotEng   =  3.4874913e+04 Temp     =  2.8013828e+05 Press    =  1.1014678e+04 
---------------- Step      820 ----- CPU =      0.4616 (sec) ----------------
PotEng   =  7.0067777e+04 Temp     =  1.1703821e+06 Press    =  8.6036597e+04 
---------------- Step      830 ----- CPU =      0.4668 (sec) ----------------
PotEng   =  1.3105635e+05 Temp     =  1.0237001e+06 Press    =  5.8313554e+04 
---------------- Step      840 ----- CPU =      0.4721 (sec) ----------------
PotEng   =  2.3843557e+05 Temp     =  6.6692638e+05 Press    =  4.5217228e+03 
---------------- Step      850 ----- CPU =      0.4774 (sec) ----------------
PotEng   =  3.0899482e+05 Temp     =  5.4922299e+05 Press    = -2.6130695e+04 
---------------- Step      860 ----- CPU =      0.4826 (sec) ----------------
PotEng   =  3.7535599e+05 Temp     =  7.3240486e+05 Press    = -2.0444308e+04 
---------------- Step      870 ----- CPU =      0.4879 (sec) ----------------
PotEng   =  3.8987561e+05 Temp     =  5.9583159e+05 Press    = -3.7924333e+04 
---------------- Step      880 ----- CPU =      0.4931 (sec) ----------------
PotEng   =  3.8130625e+05 Temp     =  5.2740446e+05 Press    = -4.2459143e+04 
---------------- Step      890 ----- CPU =      0.4984 (sec) ----------------
PotEng   =  3.5605937e+05 Temp     =  7.7549673e+05 Press    = -1.5421074e+04 
---------------- Step      900 ----- CPU =      0.5037 (sec) ----------------
PotEng   =  3.2285574e+05 Temp     =  7.2468918e+05 Press    = -1.2378081e+04 
---------------- Step      910 ----- CPU =      0.5089 (sec) ----------------
PotEng   =  2.7701272e+05 Temp     =  6.9320241e+05 Press    = -6.5761804e+03 
---------------- Step      920 ----- CPU =      0.5141 (sec) ----------------
PotEng   =  2.4205091e+05 Temp     =  6.4326212e+05 Press    = -4.4781396e+03 
---------------- Step      930 ----- CPU =      0.5194 (sec) ----------------
PotEng   =  2.2583243e+05 Temp     =  5.7354490e+05 Press    = -4.7930630e+03 
---------------- Step      940 ----- CPU =      0.5246 (sec) ----------------
PotEng   =  2.0103389e+05 Temp     =  5.3235258e+05 Press    = -2.5548036e+03 
---------------- Step      950 ----- CPU =      0.5299 (sec) ----------------
PotEng   =  1.7291781e+05 Temp     =  5.0327972e+05 Press    =  7.4290744e+02 
---------------- Step      960 ----- CPU =      0.5351 (sec) ----------------
PotEng   =  1.5825808e+05 Temp     =  4.5957765e+05 Press    = -2.5402218e+02 
---------------- Step      970 ----- CPU =      0.5404 (sec) ----------------
PotEng   =  1.4644051e+05 Temp     =  4.1636005e+05 Press    = -1.6847301e+03 
---------------- Step      980 ----- CPU =      0.5456 (sec) ----------------
PotEng   =  1.3671351e+05 Temp     =  3.7790718e+05 Press    = -3.8914734e+03 
---------------- Step      990 ----- CPU =      0.5508 (sec) ----------------
PotEng   =  1.2982021e+05 Temp     =  3.4437452e+05 Press    = -6.1387326e+03 
---------------- Step     1000 ----- CPU =      0.5560 (sec) ----------------
PotEng   =  1.3171084e+05 Temp     =  3.0440023e+05 Press    = -7.4511053e+03 
---------------- Step     1010 ----- CPU =      0.5612 (sec) ----------------
PotEng   =  1.1443697e+05 Temp     =  2.9971112e+05 Press    = -4.1601444e+03 
---------------- Step     1020 ----- CPU =      0.5664 (sec) ----------------
PotEng   =  9.5480174e+04 Temp     =  3.0033723e+05 Press    =  8.1509276e+02 
---------------- Step     1030 ----- CPU =      0.5716 (sec) ----------------
PotEng   =  7.3339902e+04 Temp     =  3.0923030e+05 Press    =  6.1431950e+03 
---------------- Step     1040 ----- CPU =      0.5768 (sec) ----------------
PotEng   =  5.4751797e+04 Temp     =  3.1228569e+05 Press    =  1.0003209e+04 
---------------- Step     1050 ----- CPU =      0.5876 (sec) ----------------
PotEng   =  5.2855676e+04 Temp     =  2.8047688e+05 Press    =  8.1119844e+03 
---------------- Step     1060 ----- CPU =      0.5928 (sec) ----------------
PotEng   =  5.6772518e+04 Temp     =  2.4281865e+05 Press    =  3.8265778e+03 
---------------- Step     1070 ----- CPU =      0.5991 (sec) ----------------
PotEng   =  6.5720790e+04 Temp     =  2.0202161e+05 Press    = -1.7950244e+03 
---------------- Step     1080 ----- CPU =      0.6050 (sec) ----------------
PotEng   =  7.1756170e+04 Temp     =  1.7216559e+05 Press    = -6.1297388e+03 
---------------- Step     1090 ----- CPU =      0.6102 (sec) ----------------
PotEng   =  7.3632529e+04 Temp     =  1.5398735e+05 Press    = -7.6291297e+03 
---------------- Step     1100 ----- CPU =      0.6154 (sec) ----------------
PotEng   =  6.3108060e+04 Temp     =  1.6038869e+05 Press    = -5.4645591e+03 
---------------- Step     1110 ----- CPU =      0.6206 (sec) ----------------
PotEng   =  5.0098811e+04 Temp     =  1.7203608e+05 Press    = -1.6453977e+03 
---------------- Step     1120 ----- CPU =      0.6258 (sec) ----------------
PotEng   =  3.7037368e+04 Temp     =  1.8541142e+05 Press    =  2.0699893e+03 
---------------- Step     1130 ----- CPU =      0.6310 (sec) ----------------
PotEng   =  3.7745624e+04 Temp     =  1.7058608e+05 Press    =  3.0552902e+03 
---------------- Step     1140 ----- CPU =      0.6362 (sec) ----------------
PotEng   =  3.7002936e+04 Temp     =  1.6676154e+05 Press    =  3.8525802e+03 
---------------- Step     1150 ----- CPU =      0.6413 (sec) ----------------
PotEng   =  3.4508515e+04 Temp     =  1.5996255e+05 Press    =  3.9630317e+03 
---------------- Step     1160 ----- CPU =      0.6465 (sec) ----------------
PotEng   =  3.2457672e+04 Temp     =  1.5344493e+05 Press    =  3.5968390e+03 
---------------- Step     1170 ----- CPU =      0.6517 (sec) ----------------
PotEng   =  3.4735309e+04 Temp     =  1.3984684e+05 Press    =  1.5339346e+03 
---------------- Step     1180 ----- CPU =      0.6568 (sec) ----------------
PotEng   =  3.5867876e+04 Temp     =  1.2975368e+05 Press    = -5.7511761e+02 
---------------- Step     1190 ----- CPU =      0.6620 (sec) ----------------
PotEng   =  3.6480600e+04 Temp     =  1.2213521e+05 Press    = -1.9439249e+03 
---------------- Step     1200 ----- CPU =      0.6671 (sec) ----------------
PotEng   =  3.5254308e+04 Temp     =  2.0514364e+05 Press    =  4.3389797e+03 
---------------- Step     1210 ----- CPU =      0.6723 (sec) ----------------
PotEng   =  3.5084858e+04 Temp     =  2.0748579e+05 Press    =  3.9524023e+03 
---------------- Step     1220 ----- CPU =      0.6774 (sec) ----------------
PotEng   =  3.9592517e+04 Temp     =  2.3449621e+05 Press    =  5.8172395e+03 
---------------- Step     1230 ----- CPU =      0.6826 (sec) ----------------
PotEng   =  4.2770076e+04 Temp     =  2.1392151e+05 Press    =  3.0600821e+03 
---------------- Step     1240 ----- CPU =      0.6877 (sec) ----------------
PotEng   =  4.8254677e+04 Temp     =  2.0953425e+05 Press    =  1.1835549e+03 
---------------- Step     1250 ----- CPU =      0.6929 (sec) ----------------
PotEng   =  5.3510529e+04 Temp     =  1.8550714e+05 Press    = -2.3884855e+03 
---------------- Step     1260 ----- CPU =      0.6980 (sec) ----------------
PotEng   =  5.6661738e+04 Temp     =  1.6692668e+05 Press    = -4.8660623e+03 
---------------- Step     1270 ----- CPU =      0.7032 (sec) ----------------
PotEng   =  5.8819760e+04 Temp     =  1.5242968e+05 Press    = -6.0660761e+03 
---------------- Step     1280 ----- CPU =      0.7083 (sec) ----------------
PotEng   =  4.9624290e+04 Temp     =  1.6355605e+05 Press    = -5.0259611e+03 
---------------- Step     1290 ----- CPU =      0.7134 (sec) ----------------
PotEng   =  4.9995979e+04 Temp     =  1.5699176e+05 Press    = -4.1128126e+03 
---------------- Step     1300 ----- CPU =      0.7185 (sec) ----------------
PotEng   =  4.7970376e+04 Temp     =  1.6774536e+05 Press    = -1.9027328e+03 
---------------- Step     1310 ----- CPU =      0.7237 (sec) ----------------
PotEng   =  4.2774378e+04 Temp     =  1.7237840e+05 Press    = -2.3178840e+02 
---------------- Step     1320 ----- CPU =      0.7288 (sec) ----------------
PotEng   =  3.6963396e+04 Temp     =  1.7259588e+05 Press    =  6.1969769e+02 
---------------- Step     1330 ----- CPU =      0.7339 (sec) ----------------
PotEng   =  3.4583108e+04 Temp     =  1.6657868e+05 Press    =  4.2458137e+02 
---------------- Step     1340 ----- CPU =      0.7391 (sec) ----------------
PotEng   =  3.6863552e+04 Temp     =  1.5258328e+05 Press    = -3.9109662e+02 
---------------- Step     1350 ----- CPU =      0.7442 (sec) ----------------
PotEng   =  3.5582539e+04 Temp     =  1.4694235e+05 Press    = -6.4442261e+02 
---------------- Step     1360 ----- CPU =      0.7493 (sec) ----------------
PotEng   =  3.9210797e+04 Temp     =  1.9222685e+05 Press    =  3.8121546e+03 
---------------- Step     1370 ----- CPU =      0.7544 (sec) ----------------
PotEng   =  4.0271269e+04 Temp     =  1.7883861e+05 Press    =  2.9760716e+03 
---------------- Step     1380 ----- CPU =      0.7596 (sec) ----------------
PotEng   =  4.1682229e+04 Temp     =  1.6564518e+05 Press    =  2.2914078e+03 
---------------- Step     1390 ----- CPU =      0.7647 (sec) ----------------
PotEng   =  3.8519400e+04 Temp     =  1.6158622e+05 Press    =  2.2418529e+03 
---------------- Step     1400 ----- CPU =      0.7698 (sec) ----------------
PotEng   =  3.5031021e+04 Temp     =  1.5846909e+05 Press    =  1.7997904e+03 
---------------- Step     1410 ----- CPU =      0.7749 (sec) ----------------
PotEng   =  4.0356629e+04 Temp     =  8.4954215e+05 Press    =  5.5052601e+04 
---------------- Step     1420 ----- CPU =      0.7801 (sec) ----------------
PotEng   =  6.9537058e+04 Temp     =  6.9556147e+05 Press    =  3.5207020e+04 
---------------- Step     1430 ----- CPU =      0.7852 (sec) ----------------
PotEng   =  1.4561112e+05 Temp     =  4.6112063e+05 Press    =  2.5038486e+03 
---------------- Step     1440 ----- CPU =      0.7903 (sec) ----------------
PotEng   =  2.2168402e+05 Temp     =  2.6529696e+05 Press    = -2.6383166e+04 
---------------- Step     1450 ----- CPU =      0.7953 (sec) ----------------
PotEng   =  2.5602241e+05 Temp     =  1.7433031e+05 Press    = -3.9916580e+04 
---------------- Step     1460 ----- CPU =      0.8004 (sec) ----------------
PotEng   =  2.4085808e+05 Temp     =  1.9264296e+05 Press    = -3.5418351e+04 
---------------- Step     1470 ----- CPU =      0.8055 (sec) ----------------
PotEng   =  1.8699505e+05 Temp     =  2.7058245e+05 Press    = -2.0270154e+04 
---------------- Step     1480 ----- CPU =      0.8106 (sec) ----------------
PotEng   =  1.3067665e+05 Temp     =  3.4369965e+05 Press    = -4.2325031e+03 
---------------- Step     1490 ----- CPU =      0.8156 (sec) ----------------
PotEng   =  9.6340270e+04 Temp     =  3.6701018e+05 Press    =  5.1494804e+03 
---------------- Step     1500 ----- CPU =      0.8207 (sec) ----------------
PotEng   =  6.7725013e+04 Temp     =  3.7718056e+05 Press    =  1.1053907e+04 
---------------- Step     1510 ----- CPU =      0.8257 (sec) ----------------
PotEng   =  6.2054494e+04 Temp     =  3.4145277e+05 Press    =  9.6668174e+03 
---------------- Step     1520 ----- CPU =      0.8308 (sec) ----------------
PotEng   =  7.1750607e+04 Temp     =  2.8771918e+05 Press    =  4.4282072e+03 
---------------- Step     1530 ----- CPU =      0.8358 (sec) ----------------
PotEng   =  8.0746176e+04 Temp     =  2.5402018e+05 Press    =  1.9742426e+02 
---------------- Step     1540 ----- CPU =      0.8408 (sec) ----------------
PotEng   =  8.9773344e+04 Temp     =  2.1552035e+05 Press    = -2.5090095e+03 
---------------- Step     1550 ----- CPU =      0.8459 (sec) ----------------
PotEng   =  8.0281115e+04 Temp     =  2.1080438e+05 Press    = -2.2062831e+03 
---------------- Step     1560 ----- CPU =      0.8509 (sec) ----------------
PotEng   =  6.4065861e+04 Temp     =  2.2102268e+05 Press    =  8.6656166e+02 
---------------- Step     1570 ----- CPU =      0.8560 (sec) ----------------
PotEng   =  5.3544501e+04 Temp     =  2.8742871e+05 Press    =  7.1886118e+03 
---------------- Step     1580 ----- CPU =      0.8689 (sec) ----------------
PotEng   =  5.7780886e+04 Temp     =  2.5171288e+05 Press    =  3.6988821e+03 
---------------- Step     1590 ----- CPU =      0.8743 (sec) ----------------
PotEng   =  6.7832564e+04 Temp     =  2.0958773e+05 Press    = -1.2332322e+03 
---------------- Step     1600 ----- CPU =      0.8795 (sec) ----------------
PotEng   =  7.8367634e+04 Temp     =  1.7655888e+05 Press    = -4.5693272e+03 
---------------- Step     1610 ----- CPU =      0.8847 (sec) ----------------
PotEng   =  7.4655269e+04 Temp     =  1.6807642e+05 Press    = -4.6473001e+03 
---------------- Step     1620 ----- CPU =      0.8898 (sec) ----------------
PotEng   =  5.8472062e+04 Temp     =  1.8366692e+05 Press    = -1.2671829e+03 
---------------- Step     1630 ----- CPU =      0.8948 (sec) ----------------
PotEng   =  4.0427026e+04 Temp     =  2.0145953e+05 Press    =  2.2287943e+03 
---------------- Step     1640 ----- CPU =      0.8998 (sec) ----------------
PotEng   =  3.3628912e+04 Temp     =  1.9675380e+05 Press    =  2.2130947e+03 
---------------- Step     1650 ----- CPU =      0.9048 (sec) ----------------
PotEng   =  5.1151509e+04 Temp     =  1.0331022e+06 Press    =  6.2735603e+04 
---------------- Step     1660 ----- CPU =      0.9098 (sec) ----------------
PotEng   =  1.0048522e+05 Temp     =  7.9473767e+05 Press    =  3.5737453e+04 
---------------- Step     1670 ----- CPU =      0.9149 (sec) ----------------
PotEng   =  1.9622027e+05 Temp     =  5.0726229e+05 Press    = -1.0607557e+03 
---------------- Step     1680 ----- CPU =      0.9199 (sec) ----------------
PotEng   =  2.8085564e+05 Temp     =  3.4327894e+05 Press    = -2.5943379e+04 
---------------- Step     1690 ----- CPU =      0.9249 (sec) ----------------
PotEng   =  3.0838058e+05 Temp     =  2.5198290e+05 Press    = -3.6652407e+04 
---------------- Step     1700 ----- CPU =      0.9299 (sec) ----------------
PotEng   =  2.7060077e+05 Temp     =  2.9006455e+05 Press    = -2.8879812e+04 
---------------- Step     1710 ----- CPU =      0.9349 (sec) ----------------
PotEng   =  2.0209276e+05 Temp     =  3.8201337e+05 Press    = -1.2613485e+04 
---------------- Step     1720 ----- CPU =      0.9400 (sec) ----------------
PotEng   =  1.5129126e+05 Temp     =  4.2400723e+05 Press    = -4.3478316e+02 
---------------- Step     1730 ----- CPU =      0.9450 (sec) ----------------
PotEng   =  1.2700987e+05 Temp     =  4.1165564e+05 Press    =  3.3714325e+03 
---------------- Step     1740 ----- CPU =      0.9500 (sec) ----------------
PotEng   =  9.6762308e+04 Temp     =  4.1344900e+05 Press    =  7.7770266e+03 
---------------- Step     1750 ----- CPU =      0.9550 (sec) ----------------
PotEng   =  9.1421121e+04 Temp     =  3.6796824e+05 Press    =  5.3511357e+03 
---------------- Step     1760 ----- CPU =      0.9600 (sec) ----------------
PotEng   =  1.0004603e+05 Temp     =  3.0511604e+05 Press    =  1.2180725e+02 
---------------- Step     1770 ----- CPU =      0.9650 (sec) ----------------
PotEng   =  1.0082947e+05 Temp     =  2.6706655e+05 Press    = -2.6134478e+03 
---------------- Step     1780 ----- CPU =      0.9700 (sec) ----------------
PotEng   =  9.1664145e+04 Temp     =  2.5285973e+05 Press    = -2.1498951e+03 
---------------- Step     1790 ----- CPU =      0.9750 (sec) ----------------
PotEng   =  8.5731086e+04 Temp     =  2.3831362e+05 Press    = -8.4815562e+02 
---------------- Step     1800 ----- CPU =      0.9800 (sec) ----------------
PotEng   =  6.3908098e+04 Temp     =  3.1369990e+05 Press    =  7.1716446e+03 
---------------- Step     1810 ----- CPU =      0.9850 (sec) ----------------
PotEng   =  6.3144658e+04 Temp     =  3.3073284e+05 Press    =  8.3760015e+03 
---------------- Step     1820 ----- CPU =      0.9899 (sec) ----------------
PotEng   =  7.8823419e+04 Temp     =  2.6508199e+05 Press    =  9.1239667e+02 
---------------- Step     1830 ----- CPU =      0.9948 (sec) ----------------
PotEng   =  1.0115232e+05 Temp     =  2.3201677e+05 Press    = -4.6923650e+03 
---------------- Step     1840 ----- CPU =      0.9998 (sec) ----------------
PotEng   =  1.0880453e+05 Temp     =  1.9445160e+05 Press    = -9.2380904e+03 
---------------- Step     1850 ----- CPU =      1.0048 (sec) ----------------
PotEng   =  1.0159026e+05 Temp     =  1.8973306e+05 Press    = -8.9220745e+03 
---------------- Step     1860 ----- CPU =      1.0098 (sec) ----------------
PotEng   =  7.7860976e+04 Temp     =  2.1318560e+05 Press    = -4.4428608e+03 
---------------- Step     1870 ----- CPU =      1.0148 (sec) ----------------
PotEng   =  5.3668498e+04 Temp     =  2.3683465e+05 Press    =  6.1386213e+02 
---------------- Step     1880 ----- CPU =      1.0197 (sec) ----------------
PotEng   =  4.1739363e+04 Temp     =  2.5704321e+05 Press    =  3.8568352e+03 
---------------- Step     1890 ----- CPU =      1.0247 (sec) ----------------
PotEng   =  5.2989013e+04 Temp     =  2.2395076e+05 Press    =  1.9498435e+03 
---------------- Step     1900 ----- CPU =      1.0297 (sec) ----------------
PotEng   =  6.6402886e+04 Temp     =  1.8501311e+05 Press    = -1.2586631e+03 
---------------- Step     1910 ----- CPU =      1.0346 (sec) ----------------
PotEng   =  5.7772003e+04 Temp     =  1.8944889e+05 Press    = -1.3211029e+03 
---------------- Step     1920 ----- CPU =      1.0396 (sec) ----------------
PotEng   =  5.8922965e+04 Temp     =  2.1589838e+05 Press    =  1.2262717e+03 
---------------- Step     1930 ----- CPU =      1.0445 (sec) ----------------
PotEng   =  4.9316585e+04 Temp     =  2.1453003e+05 Press    =  1.4736365e+03 
---------------- Step     1940 ----- CPU =      1.0495 (sec) ----------------
PotEng   =  4.4889059e+04 Temp     =  2.1833160e+05 Press    =  1.9829521e+03 
---------------- Step     1950 ----- CPU =      1.0544 (sec) ----------------
PotEng   =  3.6573899e+04 Temp     =  3.1789255e+05 Press    =  7.4575825e+03 
---------------- Step     1960 ----- CPU =      1.0594 (sec) ----------------
PotEng   =  5.8093030e+04 Temp     =  5.3030937e+05 Press    =  2.0883428e+04 
---------------- Step     1970 ----- CPU =      1.0643 (sec) ----------------
PotEng   =  8.6155645e+04 Temp     =  4.1190247e+05 Press    =  8.2613089e+03 
---------------- Step     1980 ----- CPU =      1.0692 (sec) ----------------
PotEng   =  1.2029758e+05 Temp     =  2.9798468e+05 Press    = -4.7416109e+03 
---------------- Step     1990 ----- CPU =      1.0741 (sec) ----------------
PotEng   =  1.5011623e+05 Temp     =  2.0956021e+05 Press    = -1.4666540e+04 
---------------- Step     2000 ----- CPU =      1.0790 (sec) ----------------
PotEng   =  1.6230075e+05 Temp     =  1.6575555e+05 Press    = -1.8904058e+04 
Loop time of 1.07906 on 5 procs for 2000 steps with 180 atoms

Performance: 7.812 ns/day, 3.072 hours/ns, 1853.473 timesteps/s
496.3% CPU use with 1 MPI tasks x 5 OpenMP threads

MPI task timing breakdown:
Section |  min time  |  avg time  |  max time  |%varavg| %total
---------------------------------------------------------------
Pair    | 0.24247    | 0.24247    | 0.24247    |   0.0 | 22.47
Bond    | 0.0064736  | 0.0064736  | 0.0064736  |   0.0 |  0.60
Kspace  | 0.4335     | 0.4335     | 0.4335     |   0.0 | 40.17
Neigh   | 0.014699   | 0.014699   | 0.014699   |   0.0 |  1.36
Comm    | 0.010456   | 0.010456   | 0.010456   |   0.0 |  0.97
Output  | 0.079686   | 0.079686   | 0.079686   |   0.0 |  7.38
Modify  | 0.29022    | 0.29022    | 0.29022    |   0.0 | 26.90
Other   |            | 0.001559   |            |       |  0.14

Nlocal:    180 ave 180 max 180 min
Histogram: 1 0 0 0 0 0 0 0 0 0
Nghost:    767 ave 767 max 767 min
Histogram: 1 0 0 0 0 0 0 0 0 0
Neighs:    2365 ave 2365 max 2365 min
Histogram: 1 0 0 0 0 0 0 0 0 0

Total # of neighbors = 2365
Ave neighs/atom = 13.1389
Ave special neighs/atom = 3.5
Neighbor list builds = 200
Dangerous builds = 200
Total wall time: 0:00:02
